

     ************************************************************************
     *************** Dalton - An Electronic Structure Program ***************
     ************************************************************************

    This is output from DALTON release Dalton2016.1 (2016)
         ( Web site: http://daltonprogram.org )

   ----------------------------------------------------------------------------

    NOTE:
     
    Dalton is an experimental code for the evaluation of molecular
    properties using (MC)SCF, DFT, CI, and CC wave functions.
    The authors accept no responsibility for the performance of
    the code or for the correctness of the results.
     
    The code (in whole or part) is provided under a licence and
    is not to be reproduced for further distribution without
    the written permission of the authors or their representatives.
     
    See the home page "http://daltonprogram.org" for further information.
     
    If results obtained with this code are published,
    the appropriate citations would be both of:
     
       K. Aidas, C. Angeli, K. L. Bak, V. Bakken, R. Bast,
       L. Boman, O. Christiansen, R. Cimiraglia, S. Coriani,
       P. Dahle, E. K. Dalskov, U. Ekstroem,
       T. Enevoldsen, J. J. Eriksen, P. Ettenhuber, B. Fernandez,
       L. Ferrighi, H. Fliegl, L. Frediani, K. Hald, A. Halkier,
       C. Haettig, H. Heiberg, T. Helgaker, A. C. Hennum,
       H. Hettema, E. Hjertenaes, S. Hoest, I.-M. Hoeyvik,
       M. F. Iozzi, B. Jansik, H. J. Aa. Jensen, D. Jonsson,
       P. Joergensen, J. Kauczor, S. Kirpekar,
       T. Kjaergaard, W. Klopper, S. Knecht, R. Kobayashi, H. Koch,
       J. Kongsted, A. Krapp, K. Kristensen, A. Ligabue,
       O. B. Lutnaes, J. I. Melo, K. V. Mikkelsen, R. H. Myhre,
       C. Neiss, C. B. Nielsen, P. Norman, J. Olsen,
       J. M. H. Olsen, A. Osted, M. J. Packer, F. Pawlowski,
       T. B. Pedersen, P. F. Provasi, S. Reine, Z. Rinkevicius,
       T. A. Ruden, K. Ruud, V. Rybkin, P. Salek, C. C. M. Samson,
       A. Sanchez de Meras, T. Saue, S. P. A. Sauer,
       B. Schimmelpfennig, K. Sneskov, A. H. Steindal,
       K. O. Sylvester-Hvid, P. R. Taylor, A. M. Teale,
       E. I. Tellgren, D. P. Tew, A. J. Thorvaldsen, L. Thoegersen,
       O. Vahtras, M. A. Watson, D. J. D. Wilson, M. Ziolkowski
       and H. Agren,
       "The Dalton quantum chemistry program system",
       WIREs Comput. Mol. Sci. 2014, 4:269–284 (doi: 10.1002/wcms.1172)
     
    and
     
       Dalton, a Molecular Electronic Structure Program,
       Release Dalton2016.1 (2016), see http://daltonprogram.org
   ----------------------------------------------------------------------------

    Authors in alphabetical order (major contribution(s) in parenthesis):

  Kestutis Aidas,           Vilnius University,           Lithuania   (QM/MM)
  Celestino Angeli,         University of Ferrara,        Italy       (NEVPT2)
  Keld L. Bak,              UNI-C,                        Denmark     (AOSOPPA, non-adiabatic coupling, magnetic properties)
  Vebjoern Bakken,          University of Oslo,           Norway      (DALTON; geometry optimizer, symmetry detection)
  Radovan Bast,             UiT The Arctic U. of Norway,  Norway      (DALTON installation and execution frameworks)
  Pablo Baudin,             University of Valencia,       Spain       (Cholesky excitation energies)
  Linus Boman,              NTNU,                         Norway      (Cholesky decomposition and subsystems)
  Ove Christiansen,         Aarhus University,            Denmark     (CC module)
  Renzo Cimiraglia,         University of Ferrara,        Italy       (NEVPT2)
  Sonia Coriani,            University of Trieste,        Italy       (CC module, MCD in RESPONS)
  Janusz Cukras,            University of Trieste,        Italy       (MChD in RESPONS)
  Paal Dahle,               University of Oslo,           Norway      (Parallelization)
  Erik K. Dalskov,          UNI-C,                        Denmark     (SOPPA)
  Thomas Enevoldsen,        Univ. of Southern Denmark,    Denmark     (SOPPA)
  Janus J. Eriksen,         Aarhus University,            Denmark     (Polarizable embedding model, TDA)
  Rasmus Faber,             University of Copenhagen,     Denmark     (Vib.avg. NMR with SOPPA, parallel AO-SOPPA)
  Berta Fernandez,          U. of Santiago de Compostela, Spain       (doublet spin, ESR in RESPONS)
  Lara Ferrighi,            Aarhus University,            Denmark     (PCM Cubic response)
  Heike Fliegl,             University of Oslo,           Norway      (CCSD(R12))
  Luca Frediani,            UiT The Arctic U. of Norway,  Norway      (PCM)
  Bin Gao,                  UiT The Arctic U. of Norway,  Norway      (Gen1Int library)
  Christof Haettig,         Ruhr-University Bochum,       Germany     (CC module)
  Kasper Hald,              Aarhus University,            Denmark     (CC module)
  Asger Halkier,            Aarhus University,            Denmark     (CC module)
  Frederik Beyer Hansen,    University of Copenhagen,     Denmark     (Parallel AO-SOPPA)
  Erik D. Hedegaard,        Univ. of Southern Denmark,    Denmark     (Polarizable embedding model, QM/MM)
  Hanne Heiberg,            University of Oslo,           Norway      (geometry analysis, selected one-electron integrals)
  Trygve Helgaker,          University of Oslo,           Norway      (DALTON; ABACUS, ERI, DFT modules, London, and much more)
  Alf Christian Hennum,     University of Oslo,           Norway      (Parity violation)
  Hinne Hettema,            University of Auckland,       New Zealand (quadratic response in RESPONS; SIRIUS supersymmetry)
  Eirik Hjertenaes,         NTNU,                         Norway      (Cholesky decomposition)
  Maria Francesca Iozzi,    University of Oslo,           Norway      (RPA)
  Brano Jansik              Technical Univ. of Ostrava    Czech Rep.  (DFT cubic response)
  Hans Joergen Aa. Jensen,  Univ. of Southern Denmark,    Denmark     (DALTON; SIRIUS, RESPONS, ABACUS modules, London, and much more)
  Dan Jonsson,              UiT The Arctic U. of Norway,  Norway      (cubic response in RESPONS module)
  Poul Joergensen,          Aarhus University,            Denmark     (RESPONS, ABACUS, and CC modules)
  Maciej Kaminski,          University of Warsaw,         Poland      (CPPh in RESPONS)
  Joanna Kauczor,           Linkoeping University,        Sweden      (Complex polarization propagator (CPP) module)
  Sheela Kirpekar,          Univ. of Southern Denmark,    Denmark     (Mass-velocity & Darwin integrals)
  Wim Klopper,              KIT Karlsruhe,                Germany     (R12 code in CC, SIRIUS, and ABACUS modules)
  Stefan Knecht,            ETH Zurich,                   Switzerland (Parallel CI and MCSCF)
  Rika Kobayashi,           Australian National Univ.,    Australia   (DIIS in CC, London in MCSCF)
  Henrik Koch,              NTNU,                         Norway      (CC module, Cholesky decomposition)
  Jacob Kongsted,           Univ. of Southern Denmark,    Denmark     (Polarizable embedding model, QM/MM)
  Andrea Ligabue,           University of Modena,         Italy       (CTOCD, AOSOPPA)
  Nanna H. List             Univ. of Southern Denmark,    Denmark     (Polarizable embedding model)
  Ola B. Lutnaes,           University of Oslo,           Norway      (DFT Hessian)
  Juan I. Melo,             University of Buenos Aires,   Argentina   (LRESC, Relativistic Effects on NMR Shieldings)
  Kurt V. Mikkelsen,        University of Copenhagen,     Denmark     (MC-SCRF and QM/MM)
  Rolf H. Myhre,            NTNU,                         Norway      (Cholesky, subsystems and ECC2)
  Christian Neiss,          Univ. Erlangen-Nuernberg,     Germany     (CCSD(R12))
  Christian B. Nielsen,     University of Copenhagen,     Denmark     (QM/MM)
  Patrick Norman,           Linkoeping University,        Sweden      (Cubic response and complex frequency response in RESPONS)
  Jeppe Olsen,              Aarhus University,            Denmark     (SIRIUS CI/density modules)
  Jogvan Magnus H. Olsen,   Univ. of Southern Denmark,    Denmark     (Polarizable embedding model, QM/MM)
  Anders Osted,             Copenhagen University,        Denmark     (QM/MM)
  Martin J. Packer,         University of Sheffield,      UK          (SOPPA)
  Filip Pawlowski,          Kazimierz Wielki University,  Poland      (CC3)
  Morten N. Pedersen,       Univ. of Southern Denmark,    Denmark     (Polarizable embedding model)
  Thomas B. Pedersen,       University of Oslo,           Norway      (Cholesky decomposition)
  Patricio F. Provasi,      University of Northeastern,   Argentina   (Analysis of coupling constants in localized orbitals)
  Zilvinas Rinkevicius,     KTH Stockholm,                Sweden      (open-shell DFT, ESR)
  Elias Rudberg,            KTH Stockholm,                Sweden      (DFT grid and basis info)
  Torgeir A. Ruden,         University of Oslo,           Norway      (Numerical derivatives in ABACUS)
  Kenneth Ruud,             UiT The Arctic U. of Norway,  Norway      (DALTON; ABACUS magnetic properties and much more)
  Pawel Salek,              KTH Stockholm,                Sweden      (DALTON; DFT code)
  Claire C. M. Samson       University of Karlsruhe       Germany     (Boys localization, r12 integrals in ERI)
  Alfredo Sanchez de Meras, University of Valencia,       Spain       (CC module, Cholesky decomposition)
  Trond Saue,               Paul Sabatier University,     France      (direct Fock matrix construction)
  Stephan P. A. Sauer,      University of Copenhagen,     Denmark     (SOPPA(CCSD), SOPPA prop., AOSOPPA, vibrational g-factors)
  Bernd Schimmelpfennig,    Forschungszentrum Karlsruhe,  Germany     (AMFI module)
  Kristian Sneskov,         Aarhus University,            Denmark     (Polarizable embedding model, QM/MM)
  Arnfinn H. Steindal,      UiT The Arctic U. of Norway,  Norway      (parallel QM/MM, Polarizable embedding model)
  Casper Steinmann,         Univ. of Southern Denmark,    Denmark     (QFIT, Polarizable embedding model)
  K. O. Sylvester-Hvid,     University of Copenhagen,     Denmark     (MC-SCRF)
  Peter R. Taylor,          VLSCI/Univ. of Melbourne,     Australia   (Symmetry handling ABACUS, integral transformation)
  Andrew M. Teale,          University of Nottingham,     England     (DFT-AC, DFT-D)
  David P. Tew,             University of Bristol,        England     (CCSD(R12))
  Olav Vahtras,             KTH Stockholm,                Sweden      (triplet response, spin-orbit, ESR, TDDFT, open-shell DFT)
  David J. Wilson,          La Trobe University,          Australia   (DFT Hessian and DFT magnetizabilities)
  Hans Agren,               KTH Stockholm,                Sweden      (SIRIUS module, RESPONS, MC-SCRF solvation model)
 --------------------------------------------------------------------------------

     Date and time (Linux)  : Fri Feb 17 08:00:23 2017
     Host name              : Mars.cluster.local                      

 * Work memory size             :  1966080000 = 14.648 gigabytes.

 * Directories for basis set searches:
   1) /cluster/cphillip/Quantenchemie/Test/Hessian-Converter/Dalton
   2) /cluster/software/dalton/dalton-2016.1/dalton/basis


Compilation information
-----------------------

 Who compiled             | clusteradmin
 Host                     | Jupiter
 System                   | Linux-3.16.0-4-amd64
 CMake generator          | Unix Makefiles
 Processor                | x86_64
 64-bit integers          | OFF
 MPI                      | ON
 Fortran compiler         | /cluster/software/openmpi/openmpi-1.10.1_64ib/bin/
                          | mpif90
 Fortran compiler version | GNU Fortran (Debian 4.9.2-10) 4.9.2
 C compiler               | /cluster/software/openmpi/openmpi-1.10.1_64ib/bin/
                          | mpicc
 C compiler version       | gcc (Debian 4.9.2-10) 4.9.2
 C++ compiler             | /cluster/software/openmpi/openmpi-1.10.1_64ib/bin/
                          | mpicxx
 C++ compiler version     | unknown
 Static linking           | OFF
 Last Git revision        | a10ef0cf7cc62686ecfeaafb7364c9b014fdc003
 Configuration time       | 2016-06-19 00:50:00.537352

 * MPI run using 4 processes.


   Content of the .dal input file
 ----------------------------------

**DALTON INPUT                                    
.RUN PROPERTIES                                   
**WAVE FUNCTIONS                                  
.HF                                               
**PROPERTIES                                      
.VIBANA                                           
.DIPGRA                                           
*VIBANA                                           
.HESPUN                                           
**END OF DALTON INPUT                             


   Content of the .mol file
 ----------------------------

BASIS                                                                          
cc-pVDZ                                                                        
  Disauerstoff                                                                 
  fixe Symmetrie, Vergleich von Hesse-Matrizen                                 
Atomtypes=2 NoSymmetry Angstrom                                                
Charge=6.0 Atoms=1                                                             
C1    -0.63050580     0.00916924     0.00000000    angstrom                    
Charge=8.0 Atoms=1                                                             
O1     0.47952152    -0.00697352     0.00000000    angstrom                    


       *******************************************************************
       *********** Output from DALTON general input processing ***********
       *******************************************************************

 --------------------------------------------------------------------------------
   Overall default print level:    0
   Print level for DALTON.STAT:    1

    Parallel calculation using MPI
    AO-direct calculation (in sections where implemented)
    HERMIT 1- and 2-electron integral sections will be executed
    "Old" integral transformation used (limited to max 255 basis functions)
    Wave function sections will be executed (SIRIUS module)
    Static molecular property section will be executed (ABACUS module)
 --------------------------------------------------------------------------------


   ****************************************************************************
   *************** Output of molecule and basis set information ***************
   ****************************************************************************


    The two title cards from your ".mol" input:
    ------------------------------------------------------------------------
 1:   Disauerstoff                                                          
 2:   fixe Symmetrie, Vergleich von Hesse-Matrizen                          
    ------------------------------------------------------------------------

  Coordinates are entered in Angstrom and converted to atomic units.
          - Conversion factor : 1 bohr = 0.52917721 A

  Atomic type no.    1
  --------------------
  Nuclear charge:   6.00000
  Number of symmetry independent centers:    1
  Number of basis sets to read;    2
  Basis set file used for this atomic type with Z =   6 :
     "/cluster/software/dalton/dalton-2016.1/dalton/basis/cc-pVDZ"

  Atomic type no.    2
  --------------------
  Nuclear charge:   8.00000
  Number of symmetry independent centers:    1
  Number of basis sets to read;    2
  Basis set file used for this atomic type with Z =   8 :
     "/cluster/software/dalton/dalton-2016.1/dalton/basis/cc-pVDZ"


                         SYMGRP: Point group information
                         -------------------------------

@    Point group: C1 


                                 Isotopic Masses
                                 ---------------

                           C1         12.000000
                           O1         15.994915

                       Total mass:    27.994915 amu
                       Natural abundance:  98.663 %

 Center-of-mass coordinates (a.u.):    0.007009   -0.000102    0.000000


  Atoms and basis sets
  --------------------

  Number of atom types :    2
  Total number of atoms:    2

  Basis set used is "cc-pVDZ" from the basis set library.

  label    atoms   charge   prim   cont     basis
  ----------------------------------------------------------------------
  C1          1    6.0000    26    14      [9s4p1d|3s2p1d]                                    
  O1          1    8.0000    26    14      [9s4p1d|3s2p1d]                                    
  ----------------------------------------------------------------------
  total:      2   14.0000    52    28
  ----------------------------------------------------------------------
  Spherical harmonic basis used.

  Threshold for neglecting AO integrals:  1.00D-12


  Cartesian Coordinates (a.u.)
  ----------------------------

  Total number of coordinates:    6
  C1      :     1  x  -1.1914832822    2  y   0.0173273524    3  z   0.0000000000
  O1      :     4  x   0.9061643438    5  y  -0.0131780429    6  z   0.0000000000


   Interatomic separations (in Angstrom):
   --------------------------------------

            C1          O1    
            ------      ------
 C1    :    0.000000
 O1    :    1.110145    0.000000


  Max    interatomic separation is    1.1101 Angstrom (    2.0979 Bohr)
  between atoms    2 and    1, "O1    " and "C1    ".

  Min YX interatomic separation is    1.1101 Angstrom (    2.0979 Bohr)


  Bond distances (Angstrom):
  --------------------------

                  atom 1     atom 2       distance
                  ------     ------       --------
  bond distance:  O1         C1           1.110145




 Principal moments of inertia (u*A**2) and principal axes
 --------------------------------------------------------

   IA      -0.000000          0.999894   -0.014541    0.000000
   IB       8.449737          0.000000    0.000000    1.000000
   IC       8.449737          0.014541    0.999894    0.000000


 Rotational constants
 --------------------

@    The molecule is linear.

               B =        59810.03 MHz     (    1.995048 cm-1)


@  Nuclear repulsion energy :   22.880356294020 Hartree


                     .---------------------------------------.
                     | Starting in Integral Section (HERMIT) |
                     `---------------------------------------'



 ***************************************************************************************
 ****************** Output from **INTEGRALS input processing (HERMIT) ******************
 ***************************************************************************************


 - Using defaults, no **INTEGRALS input found

 Default print level:        1

 * Nuclear model: Point charge

 Calculation of one-electron Hamiltonian integrals.

 Center of mass  (bohr):      0.007009211106     -0.000101927368      0.000000000000
 Operator center (bohr):      0.000000000000      0.000000000000      0.000000000000
 Gauge origin    (bohr):      0.000000000000      0.000000000000      0.000000000000
 Dipole origin   (bohr):      0.000000000000      0.000000000000      0.000000000000


     ************************************************************************
     ************************** Output from HERINT **************************
     ************************************************************************

  Total CPU  time used in HERMIT:   0.01 seconds
  Total wall time used in HERMIT:   0.09 seconds


                        .----------------------------------.
                        | End of Integral Section (HERMIT) |
                        `----------------------------------'



                   .--------------------------------------------.
                   | Starting in Wave Function Section (SIRIUS) |
                   `--------------------------------------------'


 *** Output from Huckel module :

     Using EWMO model:          T
     Using EHT  model:          F
     Number of Huckel orbitals each symmetry:   10

 EWMO - Energy Weighted Maximum Overlap - is a Huckel type method,
        which normally is better than Extended Huckel Theory.
 Reference: Linderberg and Ohrn, Propagators in Quantum Chemistry (Wiley, 1973)

 Huckel EWMO eigenvalues for symmetry :  1
          -20.686347     -11.350534      -1.586705      -0.795957      -0.720810
           -0.720810      -0.452752      -0.302290      -0.302290      -0.132605

 **********************************************************************
 *SIRIUS* a direct, restricted step, second order MCSCF program       *
 **********************************************************************

 
     Date and time (Linux)  : Fri Feb 17 08:00:24 2017
     Host name              : Mars.cluster.local                      

 Title lines from ".mol" input file:
       Disauerstoff                                                          
       fixe Symmetrie, Vergleich von Hesse-Matrizen                          

 Print level on unit LUPRI =   2 is   0
 Print level on unit LUW4  =   2 is   5

@    Restricted, closed shell Hartree-Fock calculation.
 Fock matrices are calculated directly and in parallel without use of integrals on disk.

 Initial molecular orbitals are obtained according to
 ".MOSTART EWMO  " input option

     Wave function specification
     ============================
@    Wave function type        --- HF ---
@    Number of closed shell electrons          14
@    Number of electrons in active shells       0
@    Total charge of the molecule               0

@    Spin multiplicity and 2 M_S                1         0
@    Total number of symmetries                 1 (point group: C1 )
@    Reference state symmetry                   1 (irrep name : A  )

     Orbital specifications
     ======================
@    Abelian symmetry species          All |    1
@                                          |  A  
                                       --- |  ---
@    Occupied SCF orbitals               7 |    7
@    Secondary orbitals                 21 |   21
@    Total number of orbitals           28 |   28
@    Number of basis functions          28 |   28

     Optimization information
     ========================
@    Number of configurations                 1
@    Number of orbital rotations            147
     ------------------------------------------
@    Total number of variables              148

     Maximum number of Fock   iterations      0
     Maximum number of DIIS   iterations     60
     Maximum number of QC-SCF iterations     60
     Threshold for SCF convergence     1.00D-05


 ***********************************************
 ***** DIIS acceleration of SCF iterations *****
 ***********************************************

 C1-DIIS algorithm; max error vectors =    8

 Iter      Total energy        Error norm    Delta(E)  DIIS dim.
 -----------------------------------------------------------------------------
   1  Screening settings (-IFTHRS, JTDIIS, DIFDEN, times)   -6    1    T  2.00D-02  2.10D-02
@  1    -112.468024466        2.19351D+00   -1.12D+02    1
      Virial theorem: -V/T =      2.007956
@      MULPOP C1      0.18; O1     -0.18; 
   1  Level shift: doubly occupied orbital energies shifted by -2.00D-01
 -----------------------------------------------------------------------------
   2  Screening settings (-IFTHRS, JTDIIS, DIFDEN, times)   -6    2    T  1.20D-02  9.00D-03
@  2    -112.739042984        3.84435D-01   -2.71D-01    2
      Virial theorem: -V/T =      1.998152
@      MULPOP C1      0.03; O1     -0.03; 
   2  Level shift: doubly occupied orbital energies shifted by -5.00D-02
 -----------------------------------------------------------------------------
   3  Screening settings (-IFTHRS, JTDIIS, DIFDEN, times)  -10    3    F  1.20D-02  9.00D-03
@  3    -112.749299586        9.36324D-02   -1.03D-02    3
      Virial theorem: -V/T =      2.000305
@      MULPOP C1      0.09; O1     -0.09; 
   3  Level shift: doubly occupied orbital energies shifted by -1.25D-02
 -----------------------------------------------------------------------------
   4  Screening settings (-IFTHRS, JTDIIS, DIFDEN, times)  -10    4    T  8.00D-03  9.00D-03
@  4    -112.750116351        2.18487D-02   -8.17D-04    4
      Virial theorem: -V/T =      2.000590
@      MULPOP C1      0.08; O1     -0.08; 
 -----------------------------------------------------------------------------
   5  Screening settings (-IFTHRS, JTDIIS, DIFDEN, times)  -10    5    T  1.20D-02  9.00D-03
@  5    -112.750141197        1.43643D-02   -2.48D-05    5
      Virial theorem: -V/T =      2.000318
@      MULPOP C1      0.09; O1     -0.09; 
 -----------------------------------------------------------------------------
   6  Screening settings (-IFTHRS, JTDIIS, DIFDEN, times)  -10    6    T  8.00D-03  1.00D-02
@  6    -112.750150424        1.57396D-03   -9.23D-06    6
      Virial theorem: -V/T =      2.000427
@      MULPOP C1      0.08; O1     -0.08; 
 -----------------------------------------------------------------------------
   7  Screening settings (-IFTHRS, JTDIIS, DIFDEN, times)  -10    7    T  1.20D-02  9.00D-03
@  7    -112.750150611        3.05193D-04   -1.87D-07    7
      Virial theorem: -V/T =      2.000431
@      MULPOP C1      0.08; O1     -0.08; 
 -----------------------------------------------------------------------------
   8  Screening settings (-IFTHRS, JTDIIS, DIFDEN, times)  -10    8    T  8.00D-03  9.00D-03
@  8    -112.750150620        3.97451D-05   -8.51D-09    8
      Virial theorem: -V/T =      2.000432
@      MULPOP C1      0.08; O1     -0.08; 
 -----------------------------------------------------------------------------
   9  Screening settings (-IFTHRS, JTDIIS, DIFDEN, times)  -10    9    T  1.20D-02  9.00D-03
@  9    -112.750150620        3.33727D-06   -1.61D-10    8

@ *** DIIS converged in   9 iterations !
@     Converged SCF energy, gradient:   -112.750150619827    3.34D-06
    - total time used in SIRFCK :              0.00 seconds


 *** SCF orbital energy analysis ***

 Only the 20 lowest virtual orbital energies printed in each symmetry.

 Number of electrons :   14
 Orbital occupations :    7

 Sym       Hartree-Fock orbital energies

1 A     -20.66878749   -11.35922101    -1.53559375    -0.80380383    -0.64236836
         -0.64236836    -0.54657263     0.16218346     0.16218346     0.38378981
          0.67289694     0.67289694     0.72833898     1.03057148     1.07786665
          1.22122773     1.22122773     1.34466486     1.34466486     1.57367990
          1.57367990     1.93983506     2.38205645     2.93978437     2.93978437
          3.44438175     3.44438175

    E(LUMO) :     0.16218346 au (symmetry 1)
  - E(HOMO) :    -0.54657263 au (symmetry 1)
  ------------------------------------------
    gap     :     0.70875609 au

 --- Writing SIRIFC interface file

 CPU and wall time for SCF :       0.104       0.100


                       .-----------------------------------.
                       | --- Final results from SIRIUS --- |
                       `-----------------------------------'


@    Spin multiplicity:           1
@    Spatial symmetry:            1 ( irrep  A   in C1  )
@    Total charge of molecule:    0

@    Final HF energy:            -112.750150619827                 
@    Nuclear repulsion:            22.880356294020
@    Electronic energy:          -135.630506913847

@    Final gradient norm:           0.000003337270

 
     Date and time (Linux)  : Fri Feb 17 08:00:24 2017
     Host name              : Mars.cluster.local                      

File label for MO orbitals:  17Feb17   FOCKDIIS

 (Only coefficients > 0.0100 are printed.)

 Molecular orbitals for symmetry species 1  (A  )
 ------------------------------------------------

    Orbital         1        2        3        4        5        6        7
   1 C1  :1s    -0.0001   1.0008   0.0170  -0.0074   0.0000   0.0000   0.0064
   2 C1  :1s     0.0002   0.0047  -0.4407  -0.5823   0.0000   0.0000  -0.5936
   3 C1  :1s    -0.0020  -0.0001   0.1815   0.2111  -0.0000  -0.0000  -0.2416
   4 C1  :2px    0.0005   0.0060  -0.3247  -0.1980   0.0064   0.0008   0.6747
   5 C1  :2py   -0.0000  -0.0001   0.0047   0.0029   0.4434   0.0561  -0.0098
   6 C1  :2pz   -0.0000   0.0000  -0.0000  -0.0000   0.0561  -0.4435   0.0000
   7 C1  :2px   -0.0014  -0.0018   0.1413   0.1344  -0.0012  -0.0001  -0.1529
   8 C1  :2py    0.0000   0.0000  -0.0021  -0.0020  -0.0794  -0.0100   0.0022
   9 C1  :2pz    0.0000  -0.0000  -0.0000  -0.0000  -0.0100   0.0794  -0.0000
  10 C1  :3d2-  -0.0000  -0.0000   0.0011   0.0004   0.0636   0.0080  -0.0008
  12 C1  :3d0   -0.0003  -0.0010   0.0225   0.0088   0.0000   0.0000  -0.0169
  13 C1  :3d1+  -0.0000   0.0000  -0.0000  -0.0000   0.0080  -0.0637   0.0000
  14 C1  :3d2+   0.0005   0.0017  -0.0389  -0.0153   0.0019   0.0002   0.0292
  15 O1  :1s    -1.0007  -0.0005   0.0104   0.0033  -0.0000  -0.0000   0.0001
  16 O1  :1s    -0.0034   0.0013  -0.8225   0.4706  -0.0000   0.0000   0.0736
  17 O1  :1s     0.0043  -0.0050   0.1322   0.1202   0.0000   0.0000  -0.0277
  18 O1  :2px    0.0027  -0.0006   0.2411   0.7346   0.0115   0.0015  -0.3550
  19 O1  :2py   -0.0000   0.0000  -0.0035  -0.0107   0.7919   0.1001   0.0052
  20 O1  :2pz    0.0000  -0.0000  -0.0000  -0.0000   0.1001  -0.7920  -0.0000
  21 O1  :2px   -0.0025   0.0029  -0.0851  -0.0753  -0.0003  -0.0000   0.0212
  22 O1  :2py    0.0000  -0.0000   0.0012   0.0011  -0.0173  -0.0022  -0.0003
  23 O1  :2pz   -0.0000   0.0000   0.0000   0.0000  -0.0022   0.0173  -0.0000
  24 O1  :3d2-   0.0000  -0.0000   0.0005   0.0006  -0.0310  -0.0039  -0.0004
  26 O1  :3d0    0.0002  -0.0001   0.0108   0.0122   0.0000   0.0000  -0.0077
  27 O1  :3d1+  -0.0000   0.0000   0.0000   0.0000  -0.0039   0.0311  -0.0000
  28 O1  :3d2+  -0.0004   0.0001  -0.0188  -0.0211  -0.0009  -0.0001   0.0133

    Orbital         8        9       10       11       12       13       14
   1 C1  :1s    -0.0000   0.0000   0.0607  -0.0000   0.0000  -0.4692  -0.5567
   2 C1  :1s    -0.0000   0.0000   0.1506  -0.0000   0.0000  -2.4150  -2.4263
   3 C1  :1s    -0.0000   0.0000  -1.7443  -0.0000  -0.0000   3.0313   1.2725
   4 C1  :2px   -0.0095   0.0005  -0.1133   0.0000   0.0225   0.9629  -1.0757
   5 C1  :2py   -0.6504   0.0365   0.0016   0.0006   1.5501  -0.0140   0.0156
   6 C1  :2pz    0.0365   0.6504   0.0000   1.5503  -0.0006   0.0000   0.0000
   7 C1  :2px   -0.0070   0.0004  -1.6898  -0.0000  -0.0252  -0.7877   0.5492
   8 C1  :2py   -0.4824   0.0271   0.0246  -0.0007  -1.7335   0.0115  -0.0080
   9 C1  :2pz    0.0271   0.4824   0.0000  -1.7337   0.0007  -0.0000   0.0000
  10 C1  :3d2-   0.0085  -0.0005   0.0015   0.0000   0.0311  -0.0006   0.0012
  12 C1  :3d0    0.0000  -0.0000   0.0294   0.0000   0.0000  -0.0110   0.0233
  13 C1  :3d1+  -0.0005  -0.0085  -0.0000   0.0311  -0.0000   0.0000  -0.0000
  14 C1  :3d2+   0.0002  -0.0000  -0.0508   0.0000   0.0009   0.0190  -0.0403
  15 O1  :1s     0.0000  -0.0000  -0.0614   0.0000  -0.0000  -0.0023   0.0235
  16 O1  :1s     0.0000  -0.0000   0.1583   0.0000  -0.0000  -0.1024   0.4308
  17 O1  :1s     0.0000  -0.0000   1.8040   0.0000   0.0000  -0.3606   0.4171
  18 O1  :2px    0.0074  -0.0004  -0.0864  -0.0000  -0.0002  -0.1481   0.4062
  19 O1  :2py    0.5073  -0.0285   0.0013  -0.0000  -0.0112   0.0022  -0.0059
  20 O1  :2pz   -0.0285  -0.5073   0.0000  -0.0112   0.0000  -0.0000   0.0000
  21 O1  :2px    0.0041  -0.0002  -0.5239   0.0000   0.0000   0.4363  -1.7364
  22 O1  :2py    0.2786  -0.0156   0.0076   0.0000   0.0031  -0.0063   0.0253
  23 O1  :2pz   -0.0156  -0.2786  -0.0000   0.0031  -0.0000   0.0000  -0.0000
  24 O1  :3d2-   0.0088  -0.0005  -0.0009  -0.0000  -0.0528   0.0002   0.0020
  26 O1  :3d0    0.0000  -0.0000  -0.0184   0.0000   0.0000   0.0032   0.0391
  27 O1  :3d1+  -0.0005  -0.0088  -0.0000  -0.0528   0.0000   0.0000  -0.0000
  28 O1  :3d2+   0.0003  -0.0000   0.0318  -0.0000  -0.0015  -0.0056  -0.0677

    Orbital        15       16       17
   1 C1  :1s     0.0601   0.0000   0.0000
   2 C1  :1s     0.5869   0.0000   0.0000
   3 C1  :1s    -1.1193   0.0000  -0.0000
   4 C1  :2px    0.7780   0.0017   0.0000
   5 C1  :2py   -0.0113   0.1161   0.0001
   6 C1  :2pz   -0.0000  -0.0001   0.1161
   7 C1  :2px   -1.0313  -0.0096  -0.0000
   8 C1  :2py    0.0150  -0.6601  -0.0004
   9 C1  :2pz   -0.0000   0.0004  -0.6601
  10 C1  :3d2-   0.0150  -0.3106  -0.0002
  12 C1  :3d0    0.2985   0.0000   0.0000
  13 C1  :3d1+   0.0000   0.0002  -0.3107
  14 C1  :3d2+  -0.5169  -0.0090  -0.0000
  15 O1  :1s    -0.0118   0.0000  -0.0000
  16 O1  :1s    -0.1836   0.0000  -0.0000
  17 O1  :1s     0.8685  -0.0000   0.0000
  18 O1  :2px    0.9521  -0.0189  -0.0000
  19 O1  :2py   -0.0138  -1.3016  -0.0009
  20 O1  :2pz   -0.0000   0.0009  -1.3017
  21 O1  :2px   -1.0203   0.0290   0.0000
  22 O1  :2py    0.0148   1.9945   0.0013
  23 O1  :2pz   -0.0000  -0.0013   1.9948
  24 O1  :3d2-  -0.0027   0.0291   0.0000
  26 O1  :3d0   -0.0528  -0.0000  -0.0000
  27 O1  :3d1+  -0.0000  -0.0000   0.0291
  28 O1  :3d2+   0.0914   0.0008   0.0000

  Total CPU  time used in SIRIUS :   0.11 seconds
  Total wall time used in SIRIUS :   0.18 seconds

 
     Date and time (Linux)  : Fri Feb 17 08:00:24 2017
     Host name              : Mars.cluster.local                      


                     .---------------------------------------.
                     | End of Wave Function Section (SIRIUS) |
                     `---------------------------------------'



        *****************************************************************
        ******** Output from **PROPE input processing for ABACUS ********
        *****************************************************************



 The following molecular properties will be calculated in this run:
 ------------------------------------------------------------------

 Default print level:        0

      The molecular gradient
      The molecular Hessian
      Vibrational analysis
      Dipole moment gradient
      Direct calculation - no two-electron integrals written or read.
      Two-electron integrals will be calculated in parallel
      Natural orbital connection is used
      for perturbation dependent basis sets.


 Changes of defaults for VIBANA:
 -------------------------------

 The vibrational Hessian will be punched to file
 Vibrational analysis for parent molecule only.

 Center of mass dipole origin  :    0.007009   -0.000102    0.000000

 Center of mass gauge origin   :    0.007009   -0.000102    0.000000


                 .------------------------------------------------.
                 | Starting in Static Property Section (ABACUS) - |
                 `------------------------------------------------'


 
     Date and time (Linux)  : Fri Feb 17 08:00:24 2017
     Host name              : Mars.cluster.local                      

 Largest deviation from tra-rot symmetry is in gradient element  5:  9.34E-11


   ***************************************************************************
   ************************ FINAL RESULTS from ABACUS ************************
   ***************************************************************************


 
     Date and time (Linux)  : Fri Feb 17 08:00:24 2017
     Host name              : Mars.cluster.local                      


                             Molecular geometry (au)
                             -----------------------

 C1        -1.1914832822            0.0173273524            0.0000000000
 O1         0.9061643438           -0.0131780429            0.0000000000





                        Molecular wave function and energy
                        ----------------------------------

     Spatial symmetry   1 ( A   )
     Spin multiplicity  1
     2 * M_S            0
     State number       1
     Total charge       0

     Total energy       -112.7501506198 au (Hartrees)
                         -3068.08766825 eV
                           -296025.4748 kJ/mol
                            -70751.7865 kcal/mol


                   Scalar Breit-Pauli relativistic corrections
                   -------------------------------------------

     Darwin correction:                          0.2605438968 au
     Mass-velocity correction:                  -0.3271670553 au

     Total relativistic correction:             -0.0666231585 au ( 0.0591%)
     Non-relativistic + relativistic energy:  -112.8167737783 au



      (Note that these corrections are NOT included in the results below.)


                             Molecular gradient (au)
                             -----------------------

 C1        -0.0000037290            0.0000000543           -0.0000000000
 O1         0.0000037290           -0.0000000543            0.0000000000





                              Molecular Hessian (au)
                              ----------------------

           C1   x      C1   y      C1   z      O1   x      O1   y      O1   z

 C1   x    1.533753
 C1   y   -0.022305    0.000326
 C1   z   -0.000000    0.000000    0.000002

 O1   x   -1.533753    0.022305    0.000000    1.533753
 O1   y    0.022305   -0.000326   -0.000000   -0.022305    0.000326
 O1   z    0.000000    0.000000   -0.000002   -0.000000    0.000000    0.000002





                                  Dipole moment
                                  -------------

                 au               Debye          C m (/(10**-30)
              0.057372           0.145824           0.486416


                             Dipole moment components
                             ------------------------

                 au               Debye          C m (/(10**-30)

      x     -0.05736550        -0.14580854        -0.48636494
      y      0.00083425         0.00212045         0.00707304
      z     -0.00000000        -0.00000000        -0.00000000


   Units:   1 a.u. =   2.54175 Debye 
            1 a.u. =   8.47835 (10**-30) C m (SI)




                           Dipole moment gradient (au)
                           ---------------------------

                       Ex             Ey             Ez

        C1   x     1.00728324    -0.01425089    -0.00000000
        C1   y    -0.01425088     0.02755478     0.00000000
        C1   z    -0.00000000     0.00000000     0.02734754

        O1   x    -1.00728324     0.01425089     0.00000000
        O1   y     0.01425088    -0.02755478    -0.00000000
        O1   z     0.00000000     0.00000000    -0.02734754





                            +-------------------------+
                            ! APT Population Analysis !
                            +-------------------------+


      [ Reference : J. Cioslowski, J.Am.Chem.Soc. 111 (1989) 8333 ]

                            C1        0.354062
                            O1       -0.354062



   Interatomic separations (in Angstrom):
   --------------------------------------

            C1          O1    
            ------      ------
 C1    :    0.000000
 O1    :    1.110145    0.000000


  Max    interatomic separation is    1.1101 Angstrom (    2.0979 Bohr)
  between atoms    2 and    1, "O1    " and "C1    ".

  Min YX interatomic separation is    1.1101 Angstrom (    2.0979 Bohr)


  Bond distances (Angstrom):
  --------------------------

                  atom 1     atom 2       distance
                  ------     ------       --------
  bond distance:  O1         C1           1.110145




   ****************************************************************************
   *************** ABACUS - ROTATIONAL AND VIBRATIONAL ANALYSIS ***************
   ****************************************************************************


 Norm of (unprojected) molecular gradient (au) :     0.00000527


 Conversion factors used:

    Hartree to (cm)-1      : 219474.62934
    a.m.u.  to a.u.        :   1822.88848
    Bohr    to Angstrom    :  0.529177211
    a.u.    to A**4amu-1   :   142.943572
    a.u.    to km (mol)-1  :      974.864


 Vibrational analysis for parent molecule only.

 ORTVEC: New vector no.  6 is removed because of linear dependence;
 norm of vector after Gram-Schmidt's orthogonalization 2.48D-16

 (ORTVEC) NNEW reduced from  6 to  5
  Norm of projected gradient     0.000005


                         Isotopic Molecule No. 1
                         ======================= 


                                 Isotopic Masses
                                 ---------------

                           C1         12.000000
                           O1         15.994915

                       Total mass:    27.994915 amu
                       Natural abundance:  98.663 %

 Center-of-mass coordinates (a.u.):    0.007009   -0.000102    0.000000


 Principal moments of inertia (u*A**2) and principal axes
 --------------------------------------------------------

   IA      -0.000000          0.999894   -0.014541    0.000000
   IB       8.449737          0.000000    0.000000    1.000000
   IC       8.449737          0.014541    0.999894    0.000000


 Rotational constants
 --------------------

@    The molecule is linear.

               B =        59810.03 MHz     (    1.995048 cm-1)


  Vibrational Frequencies and IR Intensities
  ------------------------------------------

  mode   irrep        frequency             IR intensity
  ============================================================
                  cm-1       hartrees     km/mol   (D/A)**2/amu
  ------------------------------------------------------------
   1      A      2431.56    0.011079    144.325   3.4155



  Normal Coordinates (bohrs*amu**(1/2)):
  --------------------------------------


                1  2432 
  ----------------------

    C1     x    0.218180
    C1     y   -0.003173
    C1     z    0.000000

    O1     x   -0.163687
    O1     y    0.002380
    O1     z    0.000000




  Dipole Gradient in Normal Coordinate Basis (D/(A*amu**(1/2)))
  -------------------------------------------------------------


  mode           dMA/dQi        dMB/dQi        dMC/dQi
  ----------------------------------------------------
   1            1.847924      -0.026874      -0.000000



                              Total Molecular Energy
                              ----------------------

             electronic     vibrational           total    energy 

            -112.750151        0.005540     -112.744611    Hartrees
           -24745797.52         1215.78    -24744581.73    cm-1
             -296025.47           14.54      -296010.93    kJ/mol
              -70751.79            3.48       -70748.31    kcal/mol


                          Molecular Partition Functions
                          -----------------------------

 Qtran is evaluated per mol at 1 atm. pressure.
 Qrot does not include symmetry numbers.
 Qvib does not include zero point energies
 (i.e., energy scale has vibrational ground state as zero).


 Temp.(K)  Translational     Rotational    Vibrational      Total

    50.00     6.7051D+04          17.76         1.0000   1.190568D+06
   100.00     3.7930D+05          35.17         1.0000   1.334110D+07
   200.00     2.1456D+06          70.01         1.0000   1.502159D+08
   273.15     4.6772D+06          95.49         1.0000   4.466418D+08
   298.15     5.8220D+06         104.20         1.0000   6.066688D+08
   300.00     5.9127D+06         104.85         1.0000   6.199345D+08
   400.00     1.2138D+07         139.68         1.0002   1.695705D+09
   500.00     2.1203D+07         174.52         1.0009   3.703871D+09
   600.00     3.3447D+07         209.36         1.0029   7.023135D+09
   700.00     4.9173D+07         244.20         1.0068   1.208959D+10
   800.00     6.8661D+07         279.04         1.0128   1.940344D+10
   900.00     9.2170D+07         313.87         1.0209   2.953517D+10
  1000.00     1.1995D+08         348.71         1.0312   4.313055D+10
  1500.00     3.3053D+08         522.90         1.1075   1.914145D+11
  2000.00     6.7851D+08         697.09         1.2105   5.725530D+11


                                +------------------+
                                ! Polarizabilities !
                                +------------------+


 Vibrational polarizabilities calculated acc. to Rinaldi et al.,
 Chem.Phys.Lett. 128 (1986) 177-181.


                        Vibrational Polarizabilities (au)
                        ---------------------------------

                         Ex          Ey          Ez

            Ex       0.661520   -0.009620   -0.000000
            Ey      -0.009620    0.000140    0.000000
            Ez      -0.000000    0.000000    0.000000



                   Vibrational Polarizabilities (angstroms**3)
                   -------------------------------------------

                         Ex          Ey          Ez

            Ex       0.098027   -0.001426   -0.000000
            Ey      -0.001426    0.000021    0.000000
            Ez      -0.000000    0.000000    0.000000



                   Vibrational Polarizabilities (angstroms**3)
                   -------------------------------------------

               (Along principal axes of moments of inertia)

                         EA          EB          EC

            EA       0.098048   -0.000000   -0.000000
            EB      -0.000000    0.000000    0.000000
            EC      -0.000000    0.000000    0.000000



 Vibrational mean polarization :    0.0825 cm**3 mol**-1


 CPU time statistics for ABACUS
 ------------------------------




  Total CPU  time used in ABACUS:   0.21 seconds
  Total wall time used in ABACUS:   0.21 seconds


                   .-------------------------------------------.
                   | End of Static Property Section (ABACUS) - |
                   `-------------------------------------------'

  Total CPU  time used in DALTON:   0.33 seconds
  Total wall time used in DALTON:   0.65 seconds

 
     Date and time (Linux)  : Fri Feb 17 08:00:24 2017
     Host name              : Mars.cluster.local                      
