 argument  1 = CO_HF_FRQ.nw



============================== echo of input deck ==============================
echo

start CO

PERMANENT_DIR
SCRATCH_DIR

title "CO Frequenzen"

charge 0

geometry
 symmetry c1
   C       -5.40931       -0.39799       -0.00000
   O       -4.35242       -0.41336       -0.00000
end

basis spherical
  * library cc-pVDZ
end

task scf optimize
task scf freq

================================================================================


                                         
                                         


              Northwest Computational Chemistry Package (NWChem) 6.6
              ------------------------------------------------------


                    Environmental Molecular Sciences Laboratory
                       Pacific Northwest National Laboratory
                                Richland, WA 99352

                              Copyright (c) 1994-2015
                       Pacific Northwest National Laboratory
                            Battelle Memorial Institute

             NWChem is an open-source computational chemistry package
                        distributed under the terms of the
                      Educational Community License (ECL) 2.0
             A copy of the license is included with this distribution
                              in the LICENSE.TXT file

                                  ACKNOWLEDGMENT
                                  --------------

            This software and its documentation were developed at the
            EMSL at Pacific Northwest National Laboratory, a multiprogram
            national laboratory, operated for the U.S. Department of Energy
            by Battelle under Contract Number DE-AC05-76RL01830. Support
            for this work was provided by the Department of Energy Office
            of Biological and Environmental Research, Office of Basic
            Energy Sciences, and the Office of Advanced Scientific Computing.


           Job information
           ---------------

    hostname        = Venus.cluster.local
    program         = nwchem
    date            = Thu Feb 16 19:09:25 2017

    compiled        = So_Dez_18_15:32:13_2016
    source          = /work/build/nwchem-6.6
    nwchem branch   = 6.6
    nwchem revision = 27746
    ga revision     = 10594
    input           = CO_HF_FRQ.nw
    prefix          = CO.
    data base       = ./CO.db
    status          = startup
    nproc           =        4
    time left       =     -1s



           Memory information
           ------------------

    heap     =  130280124 doubles =    994.0 Mbytes
    stack    =  130280129 doubles =    994.0 Mbytes
    global   =  260560256 doubles =   1987.9 Mbytes (distinct from heap & stack)
    total    =  521120509 doubles =   3975.8 Mbytes
    verify   = yes
    hardfail = no 


           Directory information
           ---------------------

  0 permanent = .
  0 scratch   = .




                                NWChem Input Module
                                -------------------


                                   CO Frequenzen
                                   -------------

 Scaling coordinates for geometry "geometry" by  1.889725989
 (inverse scale =  0.529177249)

 Turning off AUTOSYM since
 SYMMETRY directive was detected!


          ------
          auto-z
          ------


                             Geometry "geometry" -> ""
                             -------------------------

 Output coordinates in angstroms (scale by  1.889725989 to convert to a.u.)

  No.       Tag          Charge          X              Y              Z
 ---- ---------------- ---------- -------------- -------------- --------------
    1 C                    6.0000    -0.60393714     0.00878286     0.00000000
    2 O                    8.0000     0.45295286    -0.00658714     0.00000000

      Atomic Mass 
      ----------- 

      C                 12.000000
      O                 15.994910


 Effective nuclear repulsion energy (a.u.)      24.0307150334

            Nuclear Dipole moment (a.u.) 
            ----------------------------
        X                 Y               Z
 ---------------- ---------------- ----------------
     0.0000000000    -0.0000000000     0.0000000000



                                Z-matrix (autoz)
                                -------- 

 Units are Angstrom for bonds and degrees for angles

      Type          Name      I     J     K     L     M      Value
      ----------- --------  ----- ----- ----- ----- ----- ----------
    1 Stretch                  1     2                       1.05700


            XYZ format geometry
            -------------------
     2
 geometry
 C                    -0.60393714     0.00878286     0.00000000
 O                     0.45295286    -0.00658714     0.00000000

 ==============================================================================
                                internuclear distances
 ------------------------------------------------------------------------------
       center one      |      center two      | atomic units |  angstroms
 ------------------------------------------------------------------------------
    2 O                |   1 C                |     1.99744  |     1.05700
 ------------------------------------------------------------------------------
                         number of included internuclear distances:          1
 ==============================================================================



  library name resolved from: environment
  library file name is: </cluster/software/nwchem/nwchem-6.6/data/libraries/>
  


 Summary of "ao basis" -> "" (spherical)
 ------------------------------------------------------------------------------
       Tag                 Description            Shells   Functions and Types
 ---------------- ------------------------------  ------  ---------------------
 *                          cc-pVDZ                   on all atoms 




                           NWChem Geometry Optimization
                           ----------------------------




                                   CO Frequenzen


 maximum gradient threshold         (gmax) =   0.000450
 rms gradient threshold             (grms) =   0.000300
 maximum cartesian step threshold   (xmax) =   0.001800
 rms cartesian step threshold       (xrms) =   0.001200
 fixed trust radius                (trust) =   0.300000
 maximum step size to saddle      (sadstp) =   0.100000
 energy precision                  (eprec) =   1.0D-07
 maximum number of steps          (nptopt) =   20
 initial hessian option           (inhess) =    0
 line search option               (linopt) =    1
 hessian update option            (modupd) =    1
 saddle point option              (modsad) =    0
 initial eigen-mode to follow     (moddir) =    0
 initial variable to follow       (vardir) =    0
 follow first negative mode     (firstneg) =    T
 apply conjugacy                    (opcg) =    F
 source of zmatrix                         =   autoz   


          -------------------
          Energy Minimization
          -------------------


 Names of Z-matrix variables 
    1         

 Variables with the same non-blank name are constrained to be equal


 Using diagonal initial Hessian 
 Scaling for Hessian diagonals: bonds = 1.00  angles = 0.25  torsions = 0.10

          --------
          Step   0
          --------


                         Geometry "geometry" -> "geometry"
                         ---------------------------------

 Output coordinates in angstroms (scale by  1.889725989 to convert to a.u.)

  No.       Tag          Charge          X              Y              Z
 ---- ---------------- ---------- -------------- -------------- --------------
    1 C                    6.0000    -0.60393714     0.00878286     0.00000000
    2 O                    8.0000     0.45295286    -0.00658714     0.00000000

      Atomic Mass 
      ----------- 

      C                 12.000000
      O                 15.994910


 Effective nuclear repulsion energy (a.u.)      24.0307150334

            Nuclear Dipole moment (a.u.) 
            ----------------------------
        X                 Y               Z
 ---------------- ---------------- ----------------
     0.0000000000    -0.0000000000     0.0000000000

                      Basis "ao basis" -> "ao basis" (spherical)
                      -----
  C (Carbon)
  ----------
            Exponent  Coefficients 
       -------------- ---------------------------------------------------------
  1 S  6.66500000E+03  0.000692
  1 S  1.00000000E+03  0.005329
  1 S  2.28000000E+02  0.027077
  1 S  6.47100000E+01  0.101718
  1 S  2.10600000E+01  0.274740
  1 S  7.49500000E+00  0.448564
  1 S  2.79700000E+00  0.285074
  1 S  5.21500000E-01  0.015204

  2 S  6.66500000E+03 -0.000146
  2 S  1.00000000E+03 -0.001154
  2 S  2.28000000E+02 -0.005725
  2 S  6.47100000E+01 -0.023312
  2 S  2.10600000E+01 -0.063955
  2 S  7.49500000E+00 -0.149981
  2 S  2.79700000E+00 -0.127262
  2 S  5.21500000E-01  0.544529

  3 S  1.59600000E-01  1.000000

  4 P  9.43900000E+00  0.038109
  4 P  2.00200000E+00  0.209480
  4 P  5.45600000E-01  0.508557

  5 P  1.51700000E-01  1.000000

  6 D  5.50000000E-01  1.000000

  O (Oxygen)
  ----------
            Exponent  Coefficients 
       -------------- ---------------------------------------------------------
  1 S  1.17200000E+04  0.000710
  1 S  1.75900000E+03  0.005470
  1 S  4.00800000E+02  0.027837
  1 S  1.13700000E+02  0.104800
  1 S  3.70300000E+01  0.283062
  1 S  1.32700000E+01  0.448719
  1 S  5.02500000E+00  0.270952
  1 S  1.01300000E+00  0.015458

  2 S  1.17200000E+04 -0.000160
  2 S  1.75900000E+03 -0.001263
  2 S  4.00800000E+02 -0.006267
  2 S  1.13700000E+02 -0.025716
  2 S  3.70300000E+01 -0.070924
  2 S  1.32700000E+01 -0.165411
  2 S  5.02500000E+00 -0.116955
  2 S  1.01300000E+00  0.557368

  3 S  3.02300000E-01  1.000000

  4 P  1.77000000E+01  0.043018
  4 P  3.85400000E+00  0.228913
  4 P  1.04600000E+00  0.508728

  5 P  2.75300000E-01  1.000000

  6 D  1.18500000E+00  1.000000



 Summary of "ao basis" -> "ao basis" (spherical)
 ------------------------------------------------------------------------------
       Tag                 Description            Shells   Functions and Types
 ---------------- ------------------------------  ------  ---------------------
 C                          cc-pVDZ                  6       14   3s2p1d
 O                          cc-pVDZ                  6       14   3s2p1d


                                 NWChem SCF Module
                                 -----------------


                                   CO Frequenzen



  ao basis        = "ao basis"
  functions       =    28
  atoms           =     2
  closed shells   =     7
  open shells     =     0
  charge          =   0.00
  wavefunction    = RHF 
  input vectors   = atomic
  output vectors  = ./CO.movecs
  use symmetry    = F
  symmetry adapt  = F


 Summary of "ao basis" -> "ao basis" (spherical)
 ------------------------------------------------------------------------------
       Tag                 Description            Shells   Functions and Types
 ---------------- ------------------------------  ------  ---------------------
 C                          cc-pVDZ                  6       14   3s2p1d
 O                          cc-pVDZ                  6       14   3s2p1d



 Forming initial guess at      11.3s


      Superposition of Atomic Density Guess
      -------------------------------------

 Sum of atomic energies:        -112.42981721

      Non-variational initial energy
      ------------------------------

 Total energy =    -113.076829
 1-e energy   =    -200.416534
 2-e energy   =      63.308990
 HOMO         =      -0.390451
 LUMO         =       0.064104


 Starting SCF solution at      11.4s



 ----------------------------------------------
         Quadratically convergent ROHF

 Convergence threshold     :          1.000E-04
 Maximum no. of iterations :           30
 Final Fock-matrix accuracy:          1.000E-07
 ----------------------------------------------


 #quartets = 3.081D+03 #integrals = 4.463D+04 #direct =  0.0% #cached =100.0%


 Integral file          = ./CO.aoints.0
 Record size in doubles =  65536        No. of integs per rec  =  43688
 Max. records in memory =      2        Max. records in file   = 604543
 No. of bits per label  =      8        No. of bits per value  =     64


File balance: exchanges=     0  moved=     0  time=   0.0


              iter       energy          gnorm     gmax       time
             ----- ------------------- --------- --------- --------
                 1     -112.7164338276  6.80D-01  2.56D-01      0.1
                 2     -112.7389909745  1.86D-01  8.27D-02      0.1
                 3     -112.7414049663  1.14D-02  5.79D-03      0.1
                 4     -112.7414132691  3.00D-05  1.09D-05      0.2


       Final RHF  results 
       ------------------ 

         Total SCF energy =   -112.741413269074
      One-electron energy =   -201.025667645935
      Two-electron energy =     64.253539343484
 Nuclear repulsion energy =     24.030715033376

        Time for solution =      0.1s


             Final eigenvalues
             -----------------

              1      
    1  -20.6664
    2  -11.3374
    3   -1.5735
    4   -0.8088
    5   -0.6671
    6   -0.6671
    7   -0.5391
    8    0.1851
    9    0.1851
   10    0.3869
   11    0.6751
   12    0.6751
   13    0.7328
   14    1.0263
   15    1.1709
   16    1.2117
   17    1.2117

                       ROHF Final Molecular Orbital Analysis
                       -------------------------------------

 Vector    2  Occ=2.000000D+00  E=-1.133738D+01
              MO Center= -6.0D-01,  8.8D-03,  1.2D-15, r^2= 2.7D-02
   Bfn.  Coefficient  Atom+Function         Bfn.  Coefficient  Atom+Function  
  ----- ------------  ---------------      ----- ------------  ---------------
     1      1.001604  1 C  s          

 Vector    3  Occ=2.000000D+00  E=-1.573481D+00
              MO Center=  1.4D-01, -2.1D-03,  2.0D-13, r^2= 3.9D-01
   Bfn.  Coefficient  Atom+Function         Bfn.  Coefficient  Atom+Function  
  ----- ------------  ---------------      ----- ------------  ---------------
    16      0.415176  2 O  s                 17      0.313140  2 O  s          
     4      0.230521  1 C  px                 2      0.226560  1 C  s          
    18     -0.181410  2 O  px         

 Vector    4  Occ=2.000000D+00  E=-8.087944D-01
              MO Center=  5.6D-01, -8.1D-03, -2.6D-13, r^2= 6.0D-01
   Bfn.  Coefficient  Atom+Function         Bfn.  Coefficient  Atom+Function  
  ----- ------------  ---------------      ----- ------------  ---------------
    18      0.525218  2 O  px                17      0.400355  2 O  s          
    21      0.265562  2 O  px                 2     -0.264048  1 C  s          
    16      0.238596  2 O  s          

 Vector    5  Occ=2.000000D+00  E=-6.670781D-01
              MO Center=  1.9D-01, -2.7D-03,  5.8D-12, r^2= 7.4D-01
   Bfn.  Coefficient  Atom+Function         Bfn.  Coefficient  Atom+Function  
  ----- ------------  ---------------      ----- ------------  ---------------
    19      0.547837  2 O  py                22      0.336255  2 O  py         
     5      0.309800  1 C  py         

 Vector    6  Occ=2.000000D+00  E=-6.670781D-01
              MO Center=  1.9D-01, -2.7D-03, -6.3D-12, r^2= 7.4D-01
   Bfn.  Coefficient  Atom+Function         Bfn.  Coefficient  Atom+Function  
  ----- ------------  ---------------      ----- ------------  ---------------
    20      0.547895  2 O  pz                23      0.336291  2 O  pz         
     6      0.309833  1 C  pz         

 Vector    7  Occ=2.000000D+00  E=-5.390780D-01
              MO Center= -9.4D-01,  1.4D-02, -4.6D-13, r^2= 8.5D-01
   Bfn.  Coefficient  Atom+Function         Bfn.  Coefficient  Atom+Function  
  ----- ------------  ---------------      ----- ------------  ---------------
     3      0.601787  1 C  s                  4     -0.447422  1 C  px         
     2      0.299982  1 C  s                 18      0.216345  2 O  px         
     7     -0.165399  1 C  px         

 Vector    8  Occ=0.000000D+00  E= 1.850699D-01
              MO Center= -5.1D-01,  7.4D-03,  1.1D-11, r^2= 1.7D+00
   Bfn.  Coefficient  Atom+Function         Bfn.  Coefficient  Atom+Function  
  ----- ------------  ---------------      ----- ------------  ---------------
     8      0.837892  1 C  py                22     -0.546604  2 O  py         
     5      0.414366  1 C  py                19     -0.350332  2 O  py         

 Vector    9  Occ=0.000000D+00  E= 1.850699D-01
              MO Center= -5.1D-01,  7.4D-03, -1.0D-11, r^2= 1.7D+00
   Bfn.  Coefficient  Atom+Function         Bfn.  Coefficient  Atom+Function  
  ----- ------------  ---------------      ----- ------------  ---------------
     9      0.837981  1 C  pz                23     -0.546662  2 O  pz         
     6      0.414410  1 C  pz                20     -0.350369  2 O  pz         

 Vector   10  Occ=0.000000D+00  E= 3.869049D-01
              MO Center= -4.4D-01,  6.3D-03,  6.6D-14, r^2= 3.1D+00
   Bfn.  Coefficient  Atom+Function         Bfn.  Coefficient  Atom+Function  
  ----- ------------  ---------------      ----- ------------  ---------------
    17      1.977718  2 O  s                  7     -1.759040  1 C  px         
     3     -1.722343  1 C  s                 21     -0.511758  2 O  px         

 Vector   11  Occ=0.000000D+00  E= 6.750524D-01
              MO Center= -5.6D-01,  8.1D-03,  4.5D-12, r^2= 1.8D+00
   Bfn.  Coefficient  Atom+Function         Bfn.  Coefficient  Atom+Function  
  ----- ------------  ---------------      ----- ------------  ---------------
     6      1.038397  1 C  pz                 9     -0.973288  1 C  pz         

 Vector   12  Occ=0.000000D+00  E= 6.750524D-01
              MO Center= -5.6D-01,  8.1D-03, -1.7D-12, r^2= 1.8D+00
   Bfn.  Coefficient  Atom+Function         Bfn.  Coefficient  Atom+Function  
  ----- ------------  ---------------      ----- ------------  ---------------
     5      1.038288  1 C  py                 8     -0.973185  1 C  py         

 Vector   13  Occ=0.000000D+00  E= 7.328296D-01
              MO Center= -1.1D+00,  1.6D-02, -2.8D-12, r^2= 1.7D+00
   Bfn.  Coefficient  Atom+Function         Bfn.  Coefficient  Atom+Function  
  ----- ------------  ---------------      ----- ------------  ---------------
     3      1.647277  1 C  s                  2     -1.127509  1 C  s          
     4      0.671283  1 C  px                17     -0.502018  2 O  s          
    21      0.441460  2 O  px                 1     -0.428996  1 C  s          
     7     -0.342685  1 C  px         

 Vector   14  Occ=0.000000D+00  E= 1.026333D+00
              MO Center=  8.2D-01, -1.2D-02,  1.8D-13, r^2= 1.3D+00
   Bfn.  Coefficient  Atom+Function         Bfn.  Coefficient  Atom+Function  
  ----- ------------  ---------------      ----- ------------  ---------------
    21      1.681833  2 O  px                 2      1.144622  1 C  s          
    17     -0.971111  2 O  s                  1      0.563902  1 C  s          
    18     -0.488106  2 O  px                 4      0.429767  1 C  px         
     3      0.371580  1 C  s                  7      0.201593  1 C  px         
    14      0.187133  1 C  d  2              16     -0.151073  2 O  s          

 Vector   15  Occ=0.000000D+00  E= 1.170874D+00
              MO Center= -3.5D-01,  5.1D-03, -1.6D-14, r^2= 9.7D-01
   Bfn.  Coefficient  Atom+Function         Bfn.  Coefficient  Atom+Function  
  ----- ------------  ---------------      ----- ------------  ---------------
     2      0.711365  1 C  s                  4      0.703655  1 C  px         
     3     -0.672095  1 C  s                  7     -0.629917  1 C  px         
    14     -0.545628  1 C  d  2              17      0.492432  2 O  s          
    18      0.461408  2 O  px                12      0.315152  1 C  d  0       
     1      0.264897  1 C  s                 16     -0.165020  2 O  s          

 Vector   16  Occ=0.000000D+00  E= 1.211699D+00
              MO Center=  4.5D-01, -6.5D-03,  2.7D-10, r^2= 1.5D+00
   Bfn.  Coefficient  Atom+Function         Bfn.  Coefficient  Atom+Function  
  ----- ------------  ---------------      ----- ------------  ---------------
    23      1.442597  2 O  pz                20     -0.865811  2 O  pz         
     9     -0.670491  1 C  pz                13      0.361213  1 C  d  1       

 Vector   17  Occ=0.000000D+00  E= 1.211699D+00
              MO Center=  4.5D-01, -6.5D-03, -2.7D-10, r^2= 1.5D+00
   Bfn.  Coefficient  Atom+Function         Bfn.  Coefficient  Atom+Function  
  ----- ------------  ---------------      ----- ------------  ---------------
    22      1.442445  2 O  py                19     -0.865720  2 O  py         
     8     -0.670420  1 C  py                10     -0.361099  1 C  d -2       


 center of mass
 --------------
 x =  -0.00015563 y =   0.00000226 z =   0.00000000

 moments of inertia (a.u.)
 ------------------
           0.005784014562           0.397727205646           0.000000000000
           0.397727205646          27.348985450587           0.000000000000
           0.000000000000           0.000000000000          27.354769465150

  Mulliken analysis of the total density
  --------------------------------------

    Atom       Charge   Shell Charges
 -----------   ------   -------------------------------------------------------
    1 C    6     5.98   2.00  0.81  0.95  1.61  0.46  0.14
    2 O    8     8.02   2.00  0.87  0.82  2.83  1.47  0.03

       Multipole analysis of the density wrt the origin
       ------------------------------------------------

     L   x y z        total         open         nuclear
     -   - - -        -----         ----         -------
     0   0 0 0      0.000000      0.000000     14.000000

     1   1 0 0      0.042235      0.000000      0.000000
     1   0 1 0     -0.000614      0.000000     -0.000000
     1   0 0 1      0.000000      0.000000      0.000000

     2   2 0 0     -8.964185      0.000000     13.676358
     2   1 1 0      0.023905      0.000000     -0.198891
     2   1 0 1     -0.000000      0.000000      0.000000
     2   0 2 0     -7.320762      0.000000      0.002892
     2   0 1 1      0.000000      0.000000      0.000000
     2   0 0 2     -7.320415      0.000000      0.000000


 Parallel integral file used       4 records with       0 large values

                              NWChem Gradients Module
                              -----------------------


                                   CO Frequenzen


  wavefunction    =   RHF     



                         RHF ENERGY GRADIENTS

    atom               coordinates                        gradient
                 x          y          z           x          y          z
   1 C      -1.141276   0.016597   0.000000    0.184805  -0.002688  -0.000000
   2 O       0.855957  -0.012448   0.000000   -0.184805   0.002688   0.000000

                 ----------------------------------------
                 |  Time  |  1-e(secs)   |  2-e(secs)   |
                 ----------------------------------------
                 |  CPU   |       0.00   |       0.17   |
                 ----------------------------------------
                 |  WALL  |       0.00   |       0.17   |
                 ----------------------------------------

@ Step       Energy      Delta E   Gmax     Grms     Xrms     Xmax   Walltime
@ ---- ---------------- -------- -------- -------- -------- -------- --------
@    0    -112.74141327  0.0D+00  0.18482  0.18482  0.00000  0.00000     14.6
                                                                    



                                Z-matrix (autoz)
                                -------- 

 Units are Angstrom for bonds and degrees for angles

      Type          Name      I     J     K     L     M      Value     Gradient
      ----------- --------  ----- ----- ----- ----- ----- ---------- ----------
    1 Stretch                  1     2                       1.05700   -0.18482

                                 NWChem SCF Module
                                 -----------------


                                   CO Frequenzen



  ao basis        = "ao basis"
  functions       =    28
  atoms           =     2
  closed shells   =     7
  open shells     =     0
  charge          =   0.00
  wavefunction    = RHF 
  input vectors   = ./CO.movecs
  output vectors  = ./CO.movecs
  use symmetry    = F
  symmetry adapt  = F


 Summary of "ao basis" -> "ao basis" (spherical)
 ------------------------------------------------------------------------------
       Tag                 Description            Shells   Functions and Types
 ---------------- ------------------------------  ------  ---------------------
 C                          cc-pVDZ                  6       14   3s2p1d
 O                          cc-pVDZ                  6       14   3s2p1d



 Forming initial guess at      17.8s


 Loading old vectors from job with title :

CO Frequenzen


 Starting SCF solution at      17.9s



 ----------------------------------------------
         Quadratically convergent ROHF

 Convergence threshold     :          1.000E-04
 Maximum no. of iterations :           30
 Final Fock-matrix accuracy:          1.000E-07
 ----------------------------------------------


 #quartets = 3.081D+03 #integrals = 4.463D+04 #direct =  0.0% #cached =100.0%


 Integral file          = ./CO.aoints.0
 Record size in doubles =  65536        No. of integs per rec  =  43688
 Max. records in memory =      2        Max. records in file   = 604543
 No. of bits per label  =      8        No. of bits per value  =     64


File balance: exchanges=     0  moved=     0  time=   0.0


              iter       energy          gnorm     gmax       time
             ----- ------------------- --------- --------- --------
                 1     -112.7213538626  4.71D-01  1.59D-01      0.4
                 2     -112.7348313382  1.30D-01  4.02D-02      0.4
                 3     -112.7359484191  1.30D-02  5.40D-03      0.4
                 4     -112.7359674831  3.44D-05  1.33D-05      0.4


       Final RHF  results 
       ------------------ 

         Total SCF energy =   -112.735967483101
      One-electron energy =   -195.987875299977
      Two-electron energy =     61.880588379374
 Nuclear repulsion energy =     21.371319437502

        Time for solution =      0.0s


             Final eigenvalues
             -----------------

              1      
    1  -20.6702
    2  -11.3909
    3   -1.4819
    4   -0.7968
    5   -0.6093
    6   -0.6093
    7   -0.5549
    8    0.1304
    9    0.1304
   10    0.3775
   11    0.6700
   12    0.6700
   13    0.7198
   14    0.9254
   15    1.0689
   16    1.2341
   17    1.2341

                       ROHF Final Molecular Orbital Analysis
                       -------------------------------------

 Vector    2  Occ=2.000000D+00  E=-1.139092D+01
              MO Center= -6.7D-01,  9.7D-03, -1.2D-15, r^2= 2.7D-02
   Bfn.  Coefficient  Atom+Function         Bfn.  Coefficient  Atom+Function  
  ----- ------------  ---------------      ----- ------------  ---------------
     1      1.001069  1 C  s          

 Vector    3  Occ=2.000000D+00  E=-1.481893D+00
              MO Center=  2.1D-01, -3.1D-03,  6.3D-14, r^2= 4.5D-01
   Bfn.  Coefficient  Atom+Function         Bfn.  Coefficient  Atom+Function  
  ----- ------------  ---------------      ----- ------------  ---------------
    16      0.424278  2 O  s                 17      0.374837  2 O  s          
     2      0.207321  1 C  s                  4      0.196490  1 C  px         

 Vector    4  Occ=2.000000D+00  E=-7.967514D-01
              MO Center=  4.2D-01, -6.1D-03, -3.0D-15, r^2= 8.6D-01
   Bfn.  Coefficient  Atom+Function         Bfn.  Coefficient  Atom+Function  
  ----- ------------  ---------------      ----- ------------  ---------------
    18      0.468028  2 O  px                17      0.372973  2 O  s          
     2     -0.329573  1 C  s                 21      0.254305  2 O  px         
    16      0.237792  2 O  s                  3     -0.183092  1 C  s          

 Vector    5  Occ=2.000000D+00  E=-6.093432D-01
              MO Center=  2.4D-01, -3.5D-03, -5.4D-14, r^2= 8.2D-01
   Bfn.  Coefficient  Atom+Function         Bfn.  Coefficient  Atom+Function  
  ----- ------------  ---------------      ----- ------------  ---------------
    19      0.548645  2 O  py                22      0.368411  2 O  py         
     5      0.283821  1 C  py         

 Vector    6  Occ=2.000000D+00  E=-6.093432D-01
              MO Center=  2.4D-01, -3.5D-03, -1.5D-13, r^2= 8.2D-01
   Bfn.  Coefficient  Atom+Function         Bfn.  Coefficient  Atom+Function  
  ----- ------------  ---------------      ----- ------------  ---------------
    20      0.548703  2 O  pz                23      0.368450  2 O  pz         
     6      0.283851  1 C  pz         

 Vector    7  Occ=2.000000D+00  E=-5.549425D-01
              MO Center= -8.5D-01,  1.2D-02,  2.5D-13, r^2= 1.0D+00
   Bfn.  Coefficient  Atom+Function         Bfn.  Coefficient  Atom+Function  
  ----- ------------  ---------------      ----- ------------  ---------------
     3      0.555186  1 C  s                  4     -0.456224  1 C  px         
    18      0.286489  2 O  px                 2      0.283408  1 C  s          
    21      0.179031  2 O  px                 7     -0.162208  1 C  px         

 Vector    8  Occ=0.000000D+00  E= 1.304069D-01
              MO Center= -5.1D-01,  7.4D-03, -7.3D-14, r^2= 1.6D+00
   Bfn.  Coefficient  Atom+Function         Bfn.  Coefficient  Atom+Function  
  ----- ------------  ---------------      ----- ------------  ---------------
     8      0.728587  1 C  py                22     -0.468409  2 O  py         
     5      0.460311  1 C  py                19     -0.344061  2 O  py         

 Vector    9  Occ=0.000000D+00  E= 1.304069D-01
              MO Center= -5.1D-01,  7.4D-03, -8.6D-14, r^2= 1.6D+00
   Bfn.  Coefficient  Atom+Function         Bfn.  Coefficient  Atom+Function  
  ----- ------------  ---------------      ----- ------------  ---------------
     9      0.728664  1 C  pz                23     -0.468459  2 O  pz         
     6      0.460359  1 C  pz                20     -0.344098  2 O  pz         

 Vector   10  Occ=0.000000D+00  E= 3.775176D-01
              MO Center= -5.4D-01,  7.9D-03,  2.1D-14, r^2= 3.0D+00
   Bfn.  Coefficient  Atom+Function         Bfn.  Coefficient  Atom+Function  
  ----- ------------  ---------------      ----- ------------  ---------------
    17     -1.754639  2 O  s                  7      1.699784  1 C  px         
     3      1.539193  1 C  s                 21      0.632557  2 O  px         

 Vector   11  Occ=0.000000D+00  E= 6.699609D-01
              MO Center= -6.9D-01,  1.0D-02, -1.8D-13, r^2= 1.9D+00
   Bfn.  Coefficient  Atom+Function         Bfn.  Coefficient  Atom+Function  
  ----- ------------  ---------------      ----- ------------  ---------------
     6      1.035146  1 C  pz                 9     -1.040126  1 C  pz         

 Vector   12  Occ=0.000000D+00  E= 6.699609D-01
              MO Center= -6.9D-01,  1.0D-02, -7.0D-13, r^2= 1.9D+00
   Bfn.  Coefficient  Atom+Function         Bfn.  Coefficient  Atom+Function  
  ----- ------------  ---------------      ----- ------------  ---------------
     5      1.035037  1 C  py                 8     -1.040016  1 C  py         

 Vector   13  Occ=0.000000D+00  E= 7.197584D-01
              MO Center= -1.2D+00,  1.7D-02,  7.7D-13, r^2= 1.6D+00
   Bfn.  Coefficient  Atom+Function         Bfn.  Coefficient  Atom+Function  
  ----- ------------  ---------------      ----- ------------  ---------------
     3      1.614431  1 C  s                  2     -1.275512  1 C  s          
     4      0.609638  1 C  px                 1     -0.510218  1 C  s          
    17     -0.331760  2 O  s                  7     -0.325269  1 C  px         
    21      0.295596  2 O  px         

 Vector   14  Occ=0.000000D+00  E= 9.254394D-01
              MO Center= -1.6D-01,  2.3D-03,  1.5D-13, r^2= 1.0D+00
   Bfn.  Coefficient  Atom+Function         Bfn.  Coefficient  Atom+Function  
  ----- ------------  ---------------      ----- ------------  ---------------
     2      0.935877  1 C  s                  4      0.901965  1 C  px         
     7     -0.610768  1 C  px                 3     -0.577938  1 C  s          
    21      0.412790  2 O  px                 1      0.365949  1 C  s          
    18      0.367332  2 O  px                14     -0.274324  1 C  d  2       
    17      0.256379  2 O  s                 16     -0.211710  2 O  s          

 Vector   15  Occ=0.000000D+00  E= 1.068897D+00
              MO Center=  7.6D-01, -1.1D-02,  4.8D-14, r^2= 1.5D+00
   Bfn.  Coefficient  Atom+Function         Bfn.  Coefficient  Atom+Function  
  ----- ------------  ---------------      ----- ------------  ---------------
    21      1.546932  2 O  px                17     -0.865680  2 O  s          
    18     -0.658158  2 O  px                 3      0.623327  1 C  s          
     2      0.593873  1 C  s                  7      0.387743  1 C  px         
    14      0.377870  1 C  d  2               1      0.309274  1 C  s          
     4      0.260752  1 C  px                12     -0.218256  1 C  d  0       

 Vector   16  Occ=0.000000D+00  E= 1.234143D+00
              MO Center=  5.6D-01, -8.2D-03,  2.7D-13, r^2= 1.4D+00
   Bfn.  Coefficient  Atom+Function         Bfn.  Coefficient  Atom+Function  
  ----- ------------  ---------------      ----- ------------  ---------------
    22      1.319493  2 O  py                19     -0.930153  2 O  py         
     8     -0.512993  1 C  py                10     -0.215410  1 C  d -2       

 Vector   17  Occ=0.000000D+00  E= 1.234143D+00
              MO Center=  5.6D-01, -8.2D-03, -3.9D-13, r^2= 1.4D+00
   Bfn.  Coefficient  Atom+Function         Bfn.  Coefficient  Atom+Function  
  ----- ------------  ---------------      ----- ------------  ---------------
    23      1.319632  2 O  pz                20     -0.930251  2 O  pz         
     9     -0.513047  1 C  pz                13      0.215478  1 C  d  1       


 center of mass
 --------------
 x =   0.01757721 y =  -0.00025562 z =   0.00000000

 moments of inertia (a.u.)
 ------------------
           0.007313076105           0.502870332096           0.000000000000
           0.502870332096          34.578960656408           0.000000000000
           0.000000000000           0.000000000000          34.586273732513

  Mulliken analysis of the total density
  --------------------------------------

    Atom       Charge   Shell Charges
 -----------   ------   -------------------------------------------------------
    1 C    6     5.83   2.00  0.86  0.92  1.43  0.51  0.12
    2 O    8     8.17   2.00  0.88  0.89  2.73  1.64  0.02

       Multipole analysis of the density wrt the origin
       ------------------------------------------------

     L   x y z        total         open         nuclear
     -   - - -        -----         ----         -------
     0   0 0 0     -0.000000      0.000000     14.000000

     1   1 0 0     -0.209205      0.000000      0.248531
     1   0 1 0      0.003042      0.000000     -0.003614
     1   0 0 1     -0.000000      0.000000      0.000000

     2   2 0 0     -9.048032      0.000000     17.296250
     2   1 1 0      0.021624      0.000000     -0.251534
     2   1 0 1      0.000000      0.000000      0.000000
     2   0 2 0     -7.561415      0.000000      0.003658
     2   0 1 1      0.000000      0.000000      0.000000
     2   0 0 2     -7.561101      0.000000      0.000000


 Parallel integral file used       4 records with       0 large values

 Line search: 
     step= 1.00 grad=-4.6D-02 hess= 5.1D-02 energy=   -112.735967 mode=bracket 
 new step= 0.45                   predicted energy=   -112.751681

          --------
          Step   1
          --------


                         Geometry "geometry" -> "geometry"
                         ---------------------------------

 Output coordinates in angstroms (scale by  1.889725989 to convert to a.u.)

  No.       Tag          Charge          X              Y              Z
 ---- ---------------- ---------- -------------- -------------- --------------
    1 C                    6.0000    -0.63333183     0.00921033     0.00000000
    2 O                    8.0000     0.48234755    -0.00701462     0.00000000

      Atomic Mass 
      ----------- 

      C                 12.000000
      O                 15.994910


 Effective nuclear repulsion energy (a.u.)      22.7644455005

            Nuclear Dipole moment (a.u.) 
            ----------------------------
        X                 Y               Z
 ---------------- ---------------- ----------------
     0.1110958167    -0.0016156295     0.0000000000

                                 NWChem SCF Module
                                 -----------------


                                   CO Frequenzen



  ao basis        = "ao basis"
  functions       =    28
  atoms           =     2
  closed shells   =     7
  open shells     =     0
  charge          =   0.00
  wavefunction    = RHF 
  input vectors   = ./CO.movecs
  output vectors  = ./CO.movecs
  use symmetry    = F
  symmetry adapt  = F


 Summary of "ao basis" -> "ao basis" (spherical)
 ------------------------------------------------------------------------------
       Tag                 Description            Shells   Functions and Types
 ---------------- ------------------------------  ------  ---------------------
 C                          cc-pVDZ                  6       14   3s2p1d
 O                          cc-pVDZ                  6       14   3s2p1d



 Forming initial guess at      23.0s


 Loading old vectors from job with title :

CO Frequenzen


 Starting SCF solution at      23.2s



 ----------------------------------------------
         Quadratically convergent ROHF

 Convergence threshold     :          1.000E-04
 Maximum no. of iterations :           30
 Final Fock-matrix accuracy:          1.000E-07
 ----------------------------------------------


 #quartets = 3.081D+03 #integrals = 4.463D+04 #direct =  0.0% #cached =100.0%


 Integral file          = ./CO.aoints.0
 Record size in doubles =  65536        No. of integs per rec  =  43688
 Max. records in memory =      2        Max. records in file   = 604543
 No. of bits per label  =      8        No. of bits per value  =     64


File balance: exchanges=     0  moved=     0  time=   0.0


              iter       energy          gnorm     gmax       time
             ----- ------------------- --------- --------- --------
                 1     -112.7459272855  2.52D-01  7.86D-02      0.5
                 2     -112.7500255153  2.33D-02  1.09D-02      0.5
                 3     -112.7500641342  4.52D-04  1.71D-04      0.5
                 4     -112.7500641608  9.36D-06  3.40D-06      0.5


       Final RHF  results 
       ------------------ 

         Total SCF energy =   -112.750064160848
      One-electron energy =   -198.644215714020
      Two-electron energy =     63.129706052625
 Nuclear repulsion energy =     22.764445500547

        Time for solution =      0.1s


             Final eigenvalues
             -----------------

              1      
    1  -20.6690
    2  -11.3615
    3   -1.5316
    4   -0.8033
    5   -0.6399
    6   -0.6399
    7   -0.5473
    8    0.1598
    9    0.1598
   10    0.3834
   11    0.6727
   12    0.6727
   13    0.7278
   14    1.0284
   15    1.0710
   16    1.2222
   17    1.2222

                       ROHF Final Molecular Orbital Analysis
                       -------------------------------------

 Vector    2  Occ=2.000000D+00  E=-1.136154D+01
              MO Center= -6.3D-01,  9.2D-03, -2.3D-14, r^2= 2.7D-02
   Bfn.  Coefficient  Atom+Function         Bfn.  Coefficient  Atom+Function  
  ----- ------------  ---------------      ----- ------------  ---------------
     1      1.001362  1 C  s          

 Vector    3  Occ=2.000000D+00  E=-1.531616D+00
              MO Center=  1.7D-01, -2.5D-03, -2.2D-14, r^2= 4.2D-01
   Bfn.  Coefficient  Atom+Function         Bfn.  Coefficient  Atom+Function  
  ----- ------------  ---------------      ----- ------------  ---------------
    16      0.418927  2 O  s                 17      0.341677  2 O  s          
     2      0.218556  1 C  s                  4      0.215731  1 C  px         
    18     -0.163856  2 O  px         

 Vector    4  Occ=2.000000D+00  E=-8.032704D-01
              MO Center=  5.1D-01, -7.4D-03,  3.4D-13, r^2= 7.1D-01
   Bfn.  Coefficient  Atom+Function         Bfn.  Coefficient  Atom+Function  
  ----- ------------  ---------------      ----- ------------  ---------------
    18      0.501769  2 O  px                17      0.388566  2 O  s          
     2     -0.292693  1 C  s                 21      0.262540  2 O  px         
    16      0.239448  2 O  s          

 Vector    5  Occ=2.000000D+00  E=-6.398556D-01
              MO Center=  2.1D-01, -3.1D-03, -1.0D-12, r^2= 7.8D-01
   Bfn.  Coefficient  Atom+Function         Bfn.  Coefficient  Atom+Function  
  ----- ------------  ---------------      ----- ------------  ---------------
    19      0.547806  2 O  py                22      0.351487  2 O  py         
     5      0.297767  1 C  py         

 Vector    6  Occ=2.000000D+00  E=-6.398556D-01
              MO Center=  2.1D-01, -3.1D-03,  1.1D-12, r^2= 7.8D-01
   Bfn.  Coefficient  Atom+Function         Bfn.  Coefficient  Atom+Function  
  ----- ------------  ---------------      ----- ------------  ---------------
    20      0.547864  2 O  pz                23      0.351524  2 O  pz         
     6      0.297798  1 C  pz         

 Vector    7  Occ=2.000000D+00  E=-5.472925D-01
              MO Center= -9.1D-01,  1.3D-02,  9.0D-13, r^2= 9.2D-01
   Bfn.  Coefficient  Atom+Function         Bfn.  Coefficient  Atom+Function  
  ----- ------------  ---------------      ----- ------------  ---------------
     3      0.584313  1 C  s                  4     -0.451665  1 C  px         
     2      0.294892  1 C  s                 18      0.246613  2 O  px         
     7     -0.163253  1 C  px         

 Vector    8  Occ=0.000000D+00  E= 1.598084D-01
              MO Center= -5.1D-01,  7.4D-03, -8.5D-13, r^2= 1.7D+00
   Bfn.  Coefficient  Atom+Function         Bfn.  Coefficient  Atom+Function  
  ----- ------------  ---------------      ----- ------------  ---------------
     9      0.783783  1 C  pz                23     -0.509676  2 O  pz         
     6      0.437729  1 C  pz                20     -0.348494  2 O  pz         

 Vector    9  Occ=0.000000D+00  E= 1.598084D-01
              MO Center= -5.1D-01,  7.4D-03, -3.0D-14, r^2= 1.7D+00
   Bfn.  Coefficient  Atom+Function         Bfn.  Coefficient  Atom+Function  
  ----- ------------  ---------------      ----- ------------  ---------------
     8      0.783700  1 C  py                22     -0.509622  2 O  py         
     5      0.437683  1 C  py                19     -0.348457  2 O  py         

 Vector   10  Occ=0.000000D+00  E= 3.834211D-01
              MO Center= -4.9D-01,  7.1D-03, -2.6D-13, r^2= 3.1D+00
   Bfn.  Coefficient  Atom+Function         Bfn.  Coefficient  Atom+Function  
  ----- ------------  ---------------      ----- ------------  ---------------
    17      1.885435  2 O  s                  7     -1.740668  1 C  px         
     3     -1.649570  1 C  s                 21     -0.569030  2 O  px         

 Vector   11  Occ=0.000000D+00  E= 6.726824D-01
              MO Center= -6.2D-01,  9.1D-03, -7.4D-12, r^2= 1.8D+00
   Bfn.  Coefficient  Atom+Function         Bfn.  Coefficient  Atom+Function  
  ----- ------------  ---------------      ----- ------------  ---------------
     6      1.036641  1 C  pz                 9     -1.009745  1 C  pz         

 Vector   12  Occ=0.000000D+00  E= 6.726824D-01
              MO Center= -6.2D-01,  9.1D-03,  3.8D-12, r^2= 1.8D+00
   Bfn.  Coefficient  Atom+Function         Bfn.  Coefficient  Atom+Function  
  ----- ------------  ---------------      ----- ------------  ---------------
     5      1.036531  1 C  py                 8     -1.009638  1 C  py         

 Vector   13  Occ=0.000000D+00  E= 7.277807D-01
              MO Center= -1.1D+00,  1.6D-02,  3.3D-12, r^2= 1.6D+00
   Bfn.  Coefficient  Atom+Function         Bfn.  Coefficient  Atom+Function  
  ----- ------------  ---------------      ----- ------------  ---------------
     3      1.629442  1 C  s                  2     -1.208956  1 C  s          
     4      0.641173  1 C  px                 1     -0.473173  1 C  s          
    17     -0.411712  2 O  s                 21      0.361569  2 O  px         
     7     -0.335501  1 C  px         

 Vector   14  Occ=0.000000D+00  E= 1.028425D+00
              MO Center=  6.3D-01, -9.2D-03, -5.8D-14, r^2= 1.3D+00
   Bfn.  Coefficient  Atom+Function         Bfn.  Coefficient  Atom+Function  
  ----- ------------  ---------------      ----- ------------  ---------------
    21      1.459729  2 O  px                 2      1.223194  1 C  s          
     4      0.783449  1 C  px                 1      0.553841  1 C  s          
    17     -0.556512  2 O  s                 16     -0.230903  2 O  s          
    18     -0.195333  2 O  px         

 Vector   15  Occ=0.000000D+00  E= 1.071040D+00
              MO Center= -9.5D-02,  1.4D-03, -1.4D-13, r^2= 1.4D+00
   Bfn.  Coefficient  Atom+Function         Bfn.  Coefficient  Atom+Function  
  ----- ------------  ---------------      ----- ------------  ---------------
    17     -0.834994  2 O  s                  3      0.792631  1 C  s          
    21      0.772404  2 O  px                18     -0.686871  2 O  px         
     7      0.657924  1 C  px                14      0.513181  1 C  d  2       
     4     -0.428912  1 C  px                12     -0.296410  1 C  d  0       

 Vector   16  Occ=0.000000D+00  E= 1.222232D+00
              MO Center=  5.1D-01, -7.4D-03, -1.3D-13, r^2= 1.5D+00
   Bfn.  Coefficient  Atom+Function         Bfn.  Coefficient  Atom+Function  
  ----- ------------  ---------------      ----- ------------  ---------------
    23      1.390263  2 O  pz                20     -0.896328  2 O  pz         
     9     -0.598994  1 C  pz                13      0.304833  1 C  d  1       

 Vector   17  Occ=0.000000D+00  E= 1.222232D+00
              MO Center=  5.1D-01, -7.4D-03,  1.1D-13, r^2= 1.5D+00
   Bfn.  Coefficient  Atom+Function         Bfn.  Coefficient  Atom+Function  
  ----- ------------  ---------------      ----- ------------  ---------------
    22      1.390116  2 O  py                19     -0.896233  2 O  py         
     8     -0.598930  1 C  py                10     -0.304737  1 C  d -2       


 center of mass
 --------------
 x =   0.00777113 y =  -0.00011301 z =   0.00000000

 moments of inertia (a.u.)
 ------------------
           0.006445381263           0.443204879810           0.000000000000
           0.443204879810          30.476174718423           0.000000000000
           0.000000000000           0.000000000000          30.482620099686

  Mulliken analysis of the total density
  --------------------------------------

    Atom       Charge   Shell Charges
 -----------   ------   -------------------------------------------------------
    1 C    6     5.91   2.00  0.83  0.94  1.53  0.48  0.13
    2 O    8     8.09   2.00  0.87  0.85  2.78  1.55  0.03

       Multipole analysis of the density wrt the origin
       ------------------------------------------------

     L   x y z        total         open         nuclear
     -   - - -        -----         ----         -------
     0   0 0 0     -0.000000      0.000000     14.000000

     1   1 0 0     -0.068142      0.000000      0.111096
     1   0 1 0      0.000991      0.000000     -0.001616
     1   0 0 1     -0.000000      0.000000      0.000000

     2   2 0 0     -9.011515      0.000000     15.241047
     2   1 1 0      0.022934      0.000000     -0.221645
     2   1 0 1      0.000000      0.000000      0.000000
     2   0 2 0     -7.434866      0.000000      0.003223
     2   0 1 1     -0.000000      0.000000      0.000000
     2   0 0 2     -7.434532      0.000000      0.000000


 Parallel integral file used       4 records with       0 large values

                              NWChem Gradients Module
                              -----------------------


                                   CO Frequenzen


  wavefunction    =   RHF     



                         RHF ENERGY GRADIENTS

    atom               coordinates                        gradient
                 x          y          z           x          y          z
   1 C      -1.196824   0.017405   0.000000   -0.016079   0.000234   0.000000
   2 O       0.911505  -0.013256   0.000000    0.016079  -0.000234  -0.000000

                 ----------------------------------------
                 |  Time  |  1-e(secs)   |  2-e(secs)   |
                 ----------------------------------------
                 |  CPU   |       0.00   |       0.17   |
                 ----------------------------------------
                 |  WALL  |       0.00   |       0.17   |
                 ----------------------------------------

  Step       Energy      Delta E   Gmax     Grms     Xrms     Xmax   Walltime
  ---- ---------------- -------- -------- -------- -------- -------- --------
@    1    -112.75006416 -8.7D-03  0.01608  0.01608  0.03207  0.05555     26.5
                                                                    



                                Z-matrix (autoz)
                                -------- 

 Units are Angstrom for bonds and degrees for angles

      Type          Name      I     J     K     L     M      Value     Gradient
      ----------- --------  ----- ----- ----- ----- ----- ---------- ----------
    1 Stretch                  1     2                       1.11580    0.01608

                                 NWChem SCF Module
                                 -----------------


                                   CO Frequenzen



  ao basis        = "ao basis"
  functions       =    28
  atoms           =     2
  closed shells   =     7
  open shells     =     0
  charge          =   0.00
  wavefunction    = RHF 
  input vectors   = ./CO.movecs
  output vectors  = ./CO.movecs
  use symmetry    = F
  symmetry adapt  = F


 Summary of "ao basis" -> "ao basis" (spherical)
 ------------------------------------------------------------------------------
       Tag                 Description            Shells   Functions and Types
 ---------------- ------------------------------  ------  ---------------------
 C                          cc-pVDZ                  6       14   3s2p1d
 O                          cc-pVDZ                  6       14   3s2p1d



 Forming initial guess at      29.7s


 Loading old vectors from job with title :

CO Frequenzen


 Starting SCF solution at      29.9s



 ----------------------------------------------
         Quadratically convergent ROHF

 Convergence threshold     :          1.000E-04
 Maximum no. of iterations :           30
 Final Fock-matrix accuracy:          1.000E-07
 ----------------------------------------------


 #quartets = 3.081D+03 #integrals = 4.463D+04 #direct =  0.0% #cached =100.0%


 Integral file          = ./CO.aoints.0
 Record size in doubles =  65536        No. of integs per rec  =  43688
 Max. records in memory =      2        Max. records in file   = 604543
 No. of bits per label  =      8        No. of bits per value  =     64


File balance: exchanges=     0  moved=     0  time=   0.0


              iter       energy          gnorm     gmax       time
             ----- ------------------- --------- --------- --------
                 1     -112.7501292345  1.73D-02  5.71D-03      0.7
                 2     -112.7501481584  2.32D-04  6.53D-05      0.7
                 3     -112.7501481642  6.60D-06  2.46D-06      0.7


       Final RHF  results 
       ------------------ 

         Total SCF energy =   -112.750148164225
      One-electron energy =   -198.826708156515
      Two-electron energy =     63.215694446313
 Nuclear repulsion energy =     22.860865545977

        Time for solution =      0.0s


             Final eigenvalues
             -----------------

              1      
    1  -20.6688
    2  -11.3596
    3   -1.5349
    4   -0.8037
    5   -0.6419
    6   -0.6419
    7   -0.5467
    8    0.1618
    9    0.1618
   10    0.3837
   11    0.6729
   12    0.6729
   13    0.7282
   14    1.0303
   15    1.0766
   16    1.2214
   17    1.2214

                       ROHF Final Molecular Orbital Analysis
                       -------------------------------------

 Vector    2  Occ=2.000000D+00  E=-1.135961D+01
              MO Center= -6.3D-01,  9.2D-03, -2.3D-14, r^2= 2.7D-02
   Bfn.  Coefficient  Atom+Function         Bfn.  Coefficient  Atom+Function  
  ----- ------------  ---------------      ----- ------------  ---------------
     1      1.001382  1 C  s          

 Vector    3  Occ=2.000000D+00  E=-1.534927D+00
              MO Center=  1.7D-01, -2.5D-03,  4.2D-15, r^2= 4.2D-01
   Bfn.  Coefficient  Atom+Function         Bfn.  Coefficient  Atom+Function  
  ----- ------------  ---------------      ----- ------------  ---------------
    16      0.418603  2 O  s                 17      0.339444  2 O  s          
     2      0.219240  1 C  s                  4      0.216946  1 C  px         
    18     -0.165228  2 O  px         

 Vector    4  Occ=2.000000D+00  E=-8.037144D-01
              MO Center=  5.1D-01, -7.5D-03,  5.4D-13, r^2= 7.0D-01
   Bfn.  Coefficient  Atom+Function         Bfn.  Coefficient  Atom+Function  
  ----- ------------  ---------------      ----- ------------  ---------------
    18      0.503758  2 O  px                17      0.389525  2 O  s          
     2     -0.290357  1 C  s                 21      0.262892  2 O  px         
    16      0.239453  2 O  s          

 Vector    5  Occ=2.000000D+00  E=-6.419465D-01
              MO Center=  2.1D-01, -3.1D-03, -1.0D-12, r^2= 7.7D-01
   Bfn.  Coefficient  Atom+Function         Bfn.  Coefficient  Atom+Function  
  ----- ------------  ---------------      ----- ------------  ---------------
    19      0.532412  2 O  py                22      0.340491  2 O  py         
     5      0.290324  1 C  py         

 Vector    6  Occ=2.000000D+00  E=-6.419465D-01
              MO Center=  2.1D-01, -3.1D-03,  6.4D-13, r^2= 7.7D-01
   Bfn.  Coefficient  Atom+Function         Bfn.  Coefficient  Atom+Function  
  ----- ------------  ---------------      ----- ------------  ---------------
    20      0.532468  2 O  pz                23      0.340527  2 O  pz         
     6      0.290355  1 C  pz         

 Vector    7  Occ=2.000000D+00  E=-5.466947D-01
              MO Center= -9.1D-01,  1.3D-02,  8.9D-13, r^2= 9.1D-01
   Bfn.  Coefficient  Atom+Function         Bfn.  Coefficient  Atom+Function  
  ----- ------------  ---------------      ----- ------------  ---------------
     3      0.585902  1 C  s                  4     -0.451342  1 C  px         
     2      0.295420  1 C  s                 18      0.244112  2 O  px         
     7     -0.163386  1 C  px         

 Vector    8  Occ=0.000000D+00  E= 1.617846D-01
              MO Center= -5.1D-01,  7.4D-03, -9.7D-13, r^2= 1.7D+00
   Bfn.  Coefficient  Atom+Function         Bfn.  Coefficient  Atom+Function  
  ----- ------------  ---------------      ----- ------------  ---------------
     8      0.760022  1 C  py                22     -0.494456  2 O  py         
     5      0.420680  1 C  py                19     -0.336418  2 O  py         
     9     -0.206974  1 C  pz         

 Vector    9  Occ=0.000000D+00  E= 1.617846D-01
              MO Center= -5.1D-01,  7.4D-03, -3.8D-13, r^2= 1.7D+00
   Bfn.  Coefficient  Atom+Function         Bfn.  Coefficient  Atom+Function  
  ----- ------------  ---------------      ----- ------------  ---------------
     9      0.760102  1 C  pz                23     -0.494508  2 O  pz         
     6      0.420725  1 C  pz                20     -0.336453  2 O  pz         
     8      0.206952  1 C  py         

 Vector   10  Occ=0.000000D+00  E= 3.837286D-01
              MO Center= -4.8D-01,  7.0D-03, -1.3D-14, r^2= 3.1D+00
   Bfn.  Coefficient  Atom+Function         Bfn.  Coefficient  Atom+Function  
  ----- ------------  ---------------      ----- ------------  ---------------
    17      1.893207  2 O  s                  7     -1.742540  1 C  px         
     3     -1.655866  1 C  s                 21     -0.564606  2 O  px         

 Vector   11  Occ=0.000000D+00  E= 6.728604D-01
              MO Center= -6.2D-01,  9.0D-03, -7.4D-12, r^2= 1.8D+00
   Bfn.  Coefficient  Atom+Function         Bfn.  Coefficient  Atom+Function  
  ----- ------------  ---------------      ----- ------------  ---------------
     6      0.839113  1 C  pz                 9     -0.815241  1 C  pz         
     5     -0.608987  1 C  py                 8      0.591663  1 C  py         

 Vector   12  Occ=0.000000D+00  E= 6.728604D-01
              MO Center= -6.2D-01,  9.0D-03,  4.9D-12, r^2= 1.8D+00
   Bfn.  Coefficient  Atom+Function         Bfn.  Coefficient  Atom+Function  
  ----- ------------  ---------------      ----- ------------  ---------------
     5      0.839024  1 C  py                 8     -0.815155  1 C  py         
     6      0.609052  1 C  pz                 9     -0.591725  1 C  pz         

 Vector   13  Occ=0.000000D+00  E= 7.282461D-01
              MO Center= -1.1D+00,  1.6D-02,  2.6D-12, r^2= 1.6D+00
   Bfn.  Coefficient  Atom+Function         Bfn.  Coefficient  Atom+Function  
  ----- ------------  ---------------      ----- ------------  ---------------
     3      1.630638  1 C  s                  2     -1.203411  1 C  s          
     4      0.643517  1 C  px                 1     -0.470147  1 C  s          
    17     -0.417991  2 O  s                 21      0.367033  2 O  px         
     7     -0.336148  1 C  px         

 Vector   14  Occ=0.000000D+00  E= 1.030302D+00
              MO Center=  7.2D-01, -1.0D-02, -2.4D-14, r^2= 1.3D+00
   Bfn.  Coefficient  Atom+Function         Bfn.  Coefficient  Atom+Function  
  ----- ------------  ---------------      ----- ------------  ---------------
    21      1.537169  2 O  px                 2      1.211178  1 C  s          
     4      0.730044  1 C  px                17     -0.647889  2 O  s          
     1      0.556984  1 C  s                 18     -0.266341  2 O  px         
    16     -0.221274  2 O  s          

 Vector   15  Occ=0.000000D+00  E= 1.076626D+00
              MO Center= -1.9D-01,  2.7D-03, -5.4D-14, r^2= 1.3D+00
   Bfn.  Coefficient  Atom+Function         Bfn.  Coefficient  Atom+Function  
  ----- ------------  ---------------      ----- ------------  ---------------
     3      0.781709  1 C  s                 17     -0.775161  2 O  s          
     7      0.665945  1 C  px                18     -0.659296  2 O  px         
    21      0.611706  2 O  px                14      0.516628  1 C  d  2       
     4     -0.506986  1 C  px                12     -0.298401  1 C  d  0       
     2     -0.270181  1 C  s          

 Vector   16  Occ=0.000000D+00  E= 1.221396D+00
              MO Center=  5.0D-01, -7.3D-03, -1.0D-12, r^2= 1.5D+00
   Bfn.  Coefficient  Atom+Function         Bfn.  Coefficient  Atom+Function  
  ----- ------------  ---------------      ----- ------------  ---------------
    22      1.294332  2 O  py                19     -0.829705  2 O  py         
     8     -0.561184  1 C  py                23     -0.518481  2 O  pz         
    20      0.332362  2 O  pz                10     -0.287458  1 C  d -2       
     9      0.224798  1 C  pz         

 Vector   17  Occ=0.000000D+00  E= 1.221396D+00
              MO Center=  5.0D-01, -7.3D-03,  1.0D-12, r^2= 1.5D+00
   Bfn.  Coefficient  Atom+Function         Bfn.  Coefficient  Atom+Function  
  ----- ------------  ---------------      ----- ------------  ---------------
    23      1.294469  2 O  pz                20     -0.829793  2 O  pz         
     9     -0.561243  1 C  pz                22      0.518426  2 O  py         
    19     -0.332327  2 O  py                13      0.287549  1 C  d  1       
     8     -0.224774  1 C  py         


 center of mass
 --------------
 x =   0.00713666 y =  -0.00010379 z =   0.00000000

 moments of inertia (a.u.)
 ------------------
           0.006391126678           0.439474162307           0.000000000000
           0.439474162307          30.219638737840           0.000000000000
           0.000000000000           0.000000000000          30.226029864518

  Mulliken analysis of the total density
  --------------------------------------

    Atom       Charge   Shell Charges
 -----------   ------   -------------------------------------------------------
    1 C    6     5.92   2.00  0.83  0.94  1.53  0.48  0.13
    2 O    8     8.08   2.00  0.87  0.85  2.79  1.55  0.03

       Multipole analysis of the density wrt the origin
       ------------------------------------------------

     L   x y z        total         open         nuclear
     -   - - -        -----         ----         -------
     0   0 0 0     -0.000000      0.000000     14.000000

     1   1 0 0     -0.059169      0.000000      0.102204
     1   0 1 0      0.000860      0.000000     -0.001486
     1   0 0 1     -0.000000      0.000000      0.000000

     2   2 0 0     -9.008332      0.000000     15.112626
     2   1 1 0      0.023014      0.000000     -0.219778
     2   1 0 1      0.000000      0.000000      0.000000
     2   0 2 0     -7.426137      0.000000      0.003196
     2   0 1 1     -0.000000      0.000000      0.000000
     2   0 0 2     -7.425802      0.000000      0.000000


 Parallel integral file used       4 records with       0 large values

 Line search: 
     step= 1.00 grad=-1.4D-04 hess= 5.9D-05 energy=   -112.750148 mode=downhill
 new step= 1.21                   predicted energy=   -112.750151

          --------
          Step   2
          --------


                         Geometry "geometry" -> "geometry"
                         ---------------------------------

 Output coordinates in angstroms (scale by  1.889725989 to convert to a.u.)

  No.       Tag          Charge          X              Y              Z
 ---- ---------------- ---------- -------------- -------------- --------------
    1 C                    6.0000    -0.63048068     0.00916887     0.00000000
    2 O                    8.0000     0.47949639    -0.00697316     0.00000000

      Atomic Mass 
      ----------- 

      C                 12.000000
      O                 15.994910


 Effective nuclear repulsion energy (a.u.)      22.8813937943

            Nuclear Dipole moment (a.u.) 
            ----------------------------
        X                 Y               Z
 ---------------- ---------------- ----------------
     0.1003200134    -0.0014589206     0.0000000000

                                 NWChem SCF Module
                                 -----------------


                                   CO Frequenzen



  ao basis        = "ao basis"
  functions       =    28
  atoms           =     2
  closed shells   =     7
  open shells     =     0
  charge          =   0.00
  wavefunction    = RHF 
  input vectors   = ./CO.movecs
  output vectors  = ./CO.movecs
  use symmetry    = F
  symmetry adapt  = F


 Summary of "ao basis" -> "ao basis" (spherical)
 ------------------------------------------------------------------------------
       Tag                 Description            Shells   Functions and Types
 ---------------- ------------------------------  ------  ---------------------
 C                          cc-pVDZ                  6       14   3s2p1d
 O                          cc-pVDZ                  6       14   3s2p1d



 Forming initial guess at      35.1s


 Loading old vectors from job with title :

CO Frequenzen


 Starting SCF solution at      35.2s



 ----------------------------------------------
         Quadratically convergent ROHF

 Convergence threshold     :          1.000E-04
 Maximum no. of iterations :           30
 Final Fock-matrix accuracy:          1.000E-07
 ----------------------------------------------


 #quartets = 3.081D+03 #integrals = 4.463D+04 #direct =  0.0% #cached =100.0%


 Integral file          = ./CO.aoints.0
 Record size in doubles =  65536        No. of integs per rec  =  43688
 Max. records in memory =      2        Max. records in file   = 604543
 No. of bits per label  =      8        No. of bits per value  =     64


File balance: exchanges=     0  moved=     0  time=   0.0


              iter       energy          gnorm     gmax       time
             ----- ------------------- --------- --------- --------
                 1     -112.7501497571  3.68D-03  1.23D-03      0.8
                 2     -112.7501506131  1.00D-05  3.43D-06      0.8


       Final RHF  results 
       ------------------ 

         Total SCF energy =   -112.750150613059
      One-electron energy =   -198.865545615165
      Two-electron energy =     63.234001207765
 Nuclear repulsion energy =     22.881393794341

        Time for solution =      0.0s


             Final eigenvalues
             -----------------

              1      
    1  -20.6688
    2  -11.3592
    3   -1.5356
    4   -0.8038
    5   -0.6424
    6   -0.6424
    7   -0.5466
    8    0.1622
    9    0.1622
   10    0.3838
   11    0.6729
   12    0.6729
   13    0.7283
   14    1.0306
   15    1.0779
   16    1.2212
   17    1.2212

                       ROHF Final Molecular Orbital Analysis
                       -------------------------------------

 Vector    2  Occ=2.000000D+00  E=-1.135920D+01
              MO Center= -6.3D-01,  9.2D-03, -2.3D-14, r^2= 2.7D-02
   Bfn.  Coefficient  Atom+Function         Bfn.  Coefficient  Atom+Function  
  ----- ------------  ---------------      ----- ------------  ---------------
     1      1.001386  1 C  s          

 Vector    3  Occ=2.000000D+00  E=-1.535629D+00
              MO Center=  1.7D-01, -2.5D-03, -5.2D-14, r^2= 4.2D-01
   Bfn.  Coefficient  Atom+Function         Bfn.  Coefficient  Atom+Function  
  ----- ------------  ---------------      ----- ------------  ---------------
    16      0.418534  2 O  s                 17      0.338969  2 O  s          
     2      0.219384  1 C  s                  4      0.217203  1 C  px         
    18     -0.165519  2 O  px         

 Vector    4  Occ=2.000000D+00  E=-8.038081D-01
              MO Center=  5.2D-01, -7.5D-03,  2.2D-13, r^2= 7.0D-01
   Bfn.  Coefficient  Atom+Function         Bfn.  Coefficient  Atom+Function  
  ----- ------------  ---------------      ----- ------------  ---------------
    18      0.504176  2 O  px                17      0.389728  2 O  s          
     2     -0.289864  1 C  s                 21      0.262964  2 O  px         
    16      0.239452  2 O  s          

 Vector    5  Occ=2.000000D+00  E=-6.423909D-01
              MO Center=  2.1D-01, -3.0D-03, -2.5D-12, r^2= 7.7D-01
   Bfn.  Coefficient  Atom+Function         Bfn.  Coefficient  Atom+Function  
  ----- ------------  ---------------      ----- ------------  ---------------
    20      0.426370  2 O  pz                19      0.344072  2 O  py         
    23      0.272484  2 O  pz                 6      0.232656  1 C  pz         
    22      0.219889  2 O  py                 5      0.187749  1 C  py         

 Vector    6  Occ=2.000000D+00  E=-6.423909D-01
              MO Center=  2.1D-01, -3.0D-03,  2.4D-12, r^2= 7.7D-01
   Bfn.  Coefficient  Atom+Function         Bfn.  Coefficient  Atom+Function  
  ----- ------------  ---------------      ----- ------------  ---------------
    19      0.426325  2 O  py                20     -0.344108  2 O  pz         
    22      0.272455  2 O  py                 5      0.232632  1 C  py         
    23     -0.219912  2 O  pz                 6     -0.187769  1 C  pz         

 Vector    7  Occ=2.000000D+00  E=-5.465665D-01
              MO Center= -9.1D-01,  1.3D-02,  8.1D-13, r^2= 9.1D-01
   Bfn.  Coefficient  Atom+Function         Bfn.  Coefficient  Atom+Function  
  ----- ------------  ---------------      ----- ------------  ---------------
     3      0.586233  1 C  s                  4     -0.451274  1 C  px         
     2      0.295529  1 C  s                 18      0.243583  2 O  px         
     7     -0.163416  1 C  px         

 Vector    8  Occ=0.000000D+00  E= 1.622045D-01
              MO Center= -5.1D-01,  7.4D-03, -3.6D-13, r^2= 1.7D+00
   Bfn.  Coefficient  Atom+Function         Bfn.  Coefficient  Atom+Function  
  ----- ------------  ---------------      ----- ------------  ---------------
     8      0.748249  1 C  py                22     -0.486842  2 O  py         
     5      0.413373  1 C  py                19     -0.330888  2 O  py         
     9     -0.248887  1 C  pz                23      0.161937  2 O  pz         

 Vector    9  Occ=0.000000D+00  E= 1.622045D-01
              MO Center= -5.1D-01,  7.4D-03, -2.8D-13, r^2= 1.7D+00
   Bfn.  Coefficient  Atom+Function         Bfn.  Coefficient  Atom+Function  
  ----- ------------  ---------------      ----- ------------  ---------------
     9      0.748328  1 C  pz                23     -0.486894  2 O  pz         
     6      0.413416  1 C  pz                20     -0.330923  2 O  pz         
     8      0.248861  1 C  py                22     -0.161920  2 O  py         

 Vector   10  Occ=0.000000D+00  E= 3.837931D-01
              MO Center= -4.8D-01,  7.0D-03, -2.3D-14, r^2= 3.1D+00
   Bfn.  Coefficient  Atom+Function         Bfn.  Coefficient  Atom+Function  
  ----- ------------  ---------------      ----- ------------  ---------------
    17      1.894844  2 O  s                  7     -1.742927  1 C  px         
     3     -1.657188  1 C  s                 21     -0.563665  2 O  px         

 Vector   11  Occ=0.000000D+00  E= 6.728985D-01
              MO Center= -6.2D-01,  9.0D-03, -1.4D-12, r^2= 1.8D+00
   Bfn.  Coefficient  Atom+Function         Bfn.  Coefficient  Atom+Function  
  ----- ------------  ---------------      ----- ------------  ---------------
     5      0.754255  1 C  py                 8     -0.732390  1 C  py         
     6     -0.711399  1 C  pz                 9      0.690777  1 C  pz         

 Vector   12  Occ=0.000000D+00  E= 6.728985D-01
              MO Center= -6.2D-01,  9.0D-03, -1.6D-12, r^2= 1.8D+00
   Bfn.  Coefficient  Atom+Function         Bfn.  Coefficient  Atom+Function  
  ----- ------------  ---------------      ----- ------------  ---------------
     6      0.754334  1 C  pz                 9     -0.732467  1 C  pz         
     5      0.711324  1 C  py                 8     -0.690704  1 C  py         

 Vector   13  Occ=0.000000D+00  E= 7.283436D-01
              MO Center= -1.1D+00,  1.6D-02,  2.9D-12, r^2= 1.6D+00
   Bfn.  Coefficient  Atom+Function         Bfn.  Coefficient  Atom+Function  
  ----- ------------  ---------------      ----- ------------  ---------------
     3      1.630896  1 C  s                  2     -1.202215  1 C  s          
     4      0.644016  1 C  px                 1     -0.469495  1 C  s          
    17     -0.419341  2 O  s                 21      0.368211  2 O  px         
     7     -0.336284  1 C  px         

 Vector   14  Occ=0.000000D+00  E= 1.030585D+00
              MO Center=  7.3D-01, -1.1D-02, -2.6D-14, r^2= 1.3D+00
   Bfn.  Coefficient  Atom+Function         Bfn.  Coefficient  Atom+Function  
  ----- ------------  ---------------      ----- ------------  ---------------
    21      1.549979  2 O  px                 2      1.207737  1 C  s          
     4      0.718912  1 C  px                17     -0.664640  2 O  s          
     1      0.557068  1 C  s                 18     -0.279428  2 O  px         
    16     -0.219116  2 O  s          

 Vector   15  Occ=0.000000D+00  E= 1.077934D+00
              MO Center= -2.0D-01,  2.9D-03, -1.9D-13, r^2= 1.2D+00
   Bfn.  Coefficient  Atom+Function         Bfn.  Coefficient  Atom+Function  
  ----- ------------  ---------------      ----- ------------  ---------------
     3      0.778658  1 C  s                 17     -0.762764  2 O  s          
     7      0.666600  1 C  px                18     -0.653147  2 O  px         
    21      0.580228  2 O  px                 4     -0.521040  1 C  px         
    14      0.516892  1 C  d  2              12     -0.298554  1 C  d  0       
     2     -0.293324  1 C  s          

 Vector   16  Occ=0.000000D+00  E= 1.221219D+00
              MO Center=  5.0D-01, -7.3D-03, -1.5D-14, r^2= 1.5D+00
   Bfn.  Coefficient  Atom+Function         Bfn.  Coefficient  Atom+Function  
  ----- ------------  ---------------      ----- ------------  ---------------
    22      1.282821  2 O  py                19     -0.821327  2 O  py         
     8     -0.556932  1 C  py                23     -0.548604  2 O  pz         
    20      0.351244  2 O  pz                10     -0.285670  1 C  d -2       
     9      0.238174  1 C  pz         

 Vector   17  Occ=0.000000D+00  E= 1.221219D+00
              MO Center=  5.0D-01, -7.3D-03, -1.0D-13, r^2= 1.5D+00
   Bfn.  Coefficient  Atom+Function         Bfn.  Coefficient  Atom+Function  
  ----- ------------  ---------------      ----- ------------  ---------------
    23      1.282956  2 O  pz                20     -0.821414  2 O  pz         
     9     -0.556991  1 C  pz                22      0.548546  2 O  py         
    19     -0.351207  2 O  py                13      0.285760  1 C  d  1       
     8     -0.238149  1 C  py         


 center of mass
 --------------
 x =   0.00700227 y =  -0.00010183 z =   0.00000000

 moments of inertia (a.u.)
 ------------------
           0.006379664108           0.438685959638           0.000000000000
           0.438685959638          30.165439419744           0.000000000000
           0.000000000000           0.000000000000          30.171819083853

  Mulliken analysis of the total density
  --------------------------------------

    Atom       Charge   Shell Charges
 -----------   ------   -------------------------------------------------------
    1 C    6     5.92   2.00  0.83  0.94  1.53  0.48  0.13
    2 O    8     8.08   2.00  0.87  0.85  2.79  1.55  0.03

       Multipole analysis of the density wrt the origin
       ------------------------------------------------

     L   x y z        total         open         nuclear
     -   - - -        -----         ----         -------
     0   0 0 0     -0.000000      0.000000     14.000000

     1   1 0 0     -0.057272      0.000000      0.100320
     1   0 1 0      0.000833      0.000000     -0.001459
     1   0 0 1     -0.000000      0.000000      0.000000

     2   2 0 0     -9.007641      0.000000     15.085496
     2   1 1 0      0.023031      0.000000     -0.219383
     2   1 0 1      0.000000      0.000000      0.000000
     2   0 2 0     -7.424275      0.000000      0.003190
     2   0 1 1     -0.000000      0.000000      0.000000
     2   0 0 2     -7.423940      0.000000      0.000000


 Parallel integral file used       4 records with       0 large values

                              NWChem Gradients Module
                              -----------------------


                                   CO Frequenzen


  wavefunction    =   RHF     



                         RHF ENERGY GRADIENTS

    atom               coordinates                        gradient
                 x          y          z           x          y          z
   1 C      -1.191436   0.017327   0.000000    0.000143  -0.000002  -0.000000
   2 O       0.906117  -0.013177   0.000000   -0.000143   0.000002   0.000000

                 ----------------------------------------
                 |  Time  |  1-e(secs)   |  2-e(secs)   |
                 ----------------------------------------
                 |  CPU   |       0.00   |       0.17   |
                 ----------------------------------------
                 |  WALL  |       0.00   |       0.17   |
                 ----------------------------------------

  Step       Energy      Delta E   Gmax     Grms     Xrms     Xmax   Walltime
  ---- ---------------- -------- -------- -------- -------- -------- --------
@    2    -112.75015061 -8.6D-05  0.00014  0.00014  0.00311  0.00539     38.4
                                     ok       ok                    



                                Z-matrix (autoz)
                                -------- 

 Units are Angstrom for bonds and degrees for angles

      Type          Name      I     J     K     L     M      Value     Gradient
      ----------- --------  ----- ----- ----- ----- ----- ---------- ----------
    1 Stretch                  1     2                       1.11009   -0.00014

                                 NWChem SCF Module
                                 -----------------


                                   CO Frequenzen



  ao basis        = "ao basis"
  functions       =    28
  atoms           =     2
  closed shells   =     7
  open shells     =     0
  charge          =   0.00
  wavefunction    = RHF 
  input vectors   = ./CO.movecs
  output vectors  = ./CO.movecs
  use symmetry    = F
  symmetry adapt  = F


 Summary of "ao basis" -> "ao basis" (spherical)
 ------------------------------------------------------------------------------
       Tag                 Description            Shells   Functions and Types
 ---------------- ------------------------------  ------  ---------------------
 C                          cc-pVDZ                  6       14   3s2p1d
 O                          cc-pVDZ                  6       14   3s2p1d



 Forming initial guess at      41.6s


 Loading old vectors from job with title :

CO Frequenzen


 Starting SCF solution at      41.8s



 ----------------------------------------------
         Quadratically convergent ROHF

 Convergence threshold     :          1.000E-04
 Maximum no. of iterations :           30
 Final Fock-matrix accuracy:          1.000E-07
 ----------------------------------------------


 #quartets = 3.081D+03 #integrals = 4.463D+04 #direct =  0.0% #cached =100.0%


 Integral file          = ./CO.aoints.0
 Record size in doubles =  65536        No. of integs per rec  =  43688
 Max. records in memory =      2        Max. records in file   = 604543
 No. of bits per label  =      8        No. of bits per value  =     64


File balance: exchanges=     0  moved=     0  time=   0.0


              iter       energy          gnorm     gmax       time
             ----- ------------------- --------- --------- --------
                 1     -112.7501506175  1.86D-04  6.31D-05      1.0
                 2     -112.7501506196  2.09D-06  5.95D-07      1.0


       Final RHF  results 
       ------------------ 

         Total SCF energy =   -112.750150619647
      One-electron energy =   -198.863585222790
      Two-electron energy =     63.233076718125
 Nuclear repulsion energy =     22.880357885017

        Time for solution =      0.0s


             Final eigenvalues
             -----------------

              1      
    1  -20.6688
    2  -11.3592
    3   -1.5356
    4   -0.8038
    5   -0.6424
    6   -0.6424
    7   -0.5466
    8    0.1622
    9    0.1622
   10    0.3838
   11    0.6729
   12    0.6729
   13    0.7283
   14    1.0306
[...]
   Bfn.  Coefficient  Atom+Function         Bfn.  Coefficient  Atom+Function  
  ----- ------------  ---------------      ----- ------------  ---------------
     5      1.007412  1 C  py                 8     -0.978237  1 C  py         
     6     -0.244972  1 C  pz                 9      0.237878  1 C  pz         

 Vector   13  Occ=0.000000D+00  E= 7.283389D-01
              MO Center= -1.1D+00,  1.6D-02, -9.3D-14, r^2= 1.6D+00
   Bfn.  Coefficient  Atom+Function         Bfn.  Coefficient  Atom+Function  
  ----- ------------  ---------------      ----- ------------  ---------------
     3      1.630884  1 C  s                  2     -1.202276  1 C  s          
     4      0.643990  1 C  px                 1     -0.469528  1 C  s          
    17     -0.419273  2 O  s                 21      0.368152  2 O  px         
     7     -0.336277  1 C  px         

 Vector   14  Occ=0.000000D+00  E= 1.030571D+00
              MO Center=  7.3D-01, -1.1D-02,  5.5D-15, r^2= 1.3D+00
   Bfn.  Coefficient  Atom+Function         Bfn.  Coefficient  Atom+Function  
  ----- ------------  ---------------      ----- ------------  ---------------
    21      1.549363  2 O  px                 2      1.207913  1 C  s          
     4      0.719466  1 C  px                17     -0.663819  2 O  s          
     1      0.557067  1 C  s                 18     -0.278788  2 O  px         
    16     -0.219225  2 O  s          

 Vector   15  Occ=0.000000D+00  E= 1.077867D+00
              MO Center= -2.0D-01,  2.9D-03,  7.1D-16, r^2= 1.2D+00
   Bfn.  Coefficient  Atom+Function         Bfn.  Coefficient  Atom+Function  
  ----- ------------  ---------------      ----- ------------  ---------------
     3      0.778815  1 C  s                 17     -0.763379  2 O  s          
     7      0.666574  1 C  px                18     -0.653456  2 O  px         
    21      0.581782  2 O  px                 4     -0.520357  1 C  px         
    14      0.516881  1 C  d  2              12     -0.298548  1 C  d  0       
     2     -0.292188  1 C  s          

 Vector   16  Occ=0.000000D+00  E= 1.221228D+00
              MO Center=  5.0D-01, -7.3D-03,  2.8D-15, r^2= 1.5D+00
   Bfn.  Coefficient  Atom+Function         Bfn.  Coefficient  Atom+Function  
  ----- ------------  ---------------      ----- ------------  ---------------
    23      1.395178  2 O  pz                20     -0.893319  2 O  pz         
     9     -0.605671  1 C  pz                13      0.310714  1 C  d  1       

 Vector   17  Occ=0.000000D+00  E= 1.221228D+00
              MO Center=  5.0D-01, -7.3D-03,  4.4D-16, r^2= 1.5D+00
   Bfn.  Coefficient  Atom+Function         Bfn.  Coefficient  Atom+Function  
  ----- ------------  ---------------      ----- ------------  ---------------
    22      1.395030  2 O  py                19     -0.893225  2 O  py         
     8     -0.605607  1 C  py                10     -0.310615  1 C  d -2       


 center of mass
 --------------
 x =   0.00700905 y =  -0.00010193 z =   0.00000000

 moments of inertia (a.u.)
 ------------------
           0.006380241801           0.438725683594           0.000000000000
           0.438725683594          30.168170965071           0.000000000000
           0.000000000000           0.000000000000          30.174551206872

  Mulliken analysis of the total density
  --------------------------------------

    Atom       Charge   Shell Charges
 -----------   ------   -------------------------------------------------------
    1 C    6     5.92   2.00  0.83  0.94  1.53  0.48  0.13
    2 O    8     8.08   2.00  0.87  0.85  2.79  1.55  0.03

       Multipole analysis of the density wrt the origin
       ------------------------------------------------

     L   x y z        total         open         nuclear
     -   - - -        -----         ----         -------
     0   0 0 0     -0.000000      0.000000     14.000000

     1   1 0 0     -0.057365      0.000000      0.100415
     1   0 1 0      0.000834      0.000000     -0.001460
     1   0 0 1      0.000000      0.000000      0.000000

     2   2 0 0     -9.007666      0.000000     15.086863
     2   1 1 0      0.023030      0.000000     -0.219403
     2   1 0 1      0.000000      0.000000      0.000000
     2   0 2 0     -7.424371      0.000000      0.003191
     2   0 1 1      0.000000      0.000000      0.000000
     2   0 0 2     -7.424036      0.000000      0.000000


 Parallel integral file used       4 records with       0 large values


 HESSIAN: the one electron contributions are done in       0.2s


 HESSIAN: 2-el 1st deriv. term done in                     0.2s


 HESSIAN: 2-el 2nd deriv. term done in                     0.4s

  stpr_wrt_fd_from_sq: overwrite of existing file:./CO.hess
 stpr_wrt_fd_dipole: overwrite of existing file./CO.fd_ddipole

 HESSIAN: the two electron contributions are done in       0.9s

                                NWChem CPHF Module
                                ------------------


  scftype          =     RHF 
  nclosed          =        7
  nopen            =        0
  variables        =      147
  # of vectors     =        6
  tolerance        = 0.10D-03
  level shift      = 0.00D+00
  max iterations   =       50
  max subspace     =       60


 #quartets = 3.081D+03 #integrals = 4.463D+04 #direct =  0.0% #cached =100.0%


 Integral file          = ./CO.aoints.0
 Record size in doubles =  65536        No. of integs per rec  =  43688
 Max. records in memory =      2        Max. records in file   = 604543
 No. of bits per label  =      8        No. of bits per value  =     64


File balance: exchanges=     0  moved=     0  time=   0.0

 SCF residual:    5.6980702913997556E-008


Iterative solution of linear equations
  No. of variables      147
  No. of equations        6
  Maximum subspace       60
        Iterations       50
       Convergence  1.0D-04
        Start time     53.7


   iter   nsub   residual    time
   ----  ------  --------  ---------
     1      6    1.97D-01      53.8
     2     12    1.26D-01      53.9
     3     18    3.58D-02      53.9
     4     24    2.90D-03      54.0
     5     30    4.16D-04      54.1
     6     36    3.76D-05      54.1

 Parallel integral file used       4 records with       0 large values

 HESSIAN: the CPHF contributions are done
  stpr_wrt_fd_from_sq: overwrite of existing file:./CO.hess
 stpr_wrt_fd_dipole: overwrite of existing file./CO.fd_ddipole

 Derivative Dipole

  
  
 X vector of derivative dipole (au) [debye/angstrom]
 d_dipole_x/<atom=   1,x> =     1.0073     [    4.8384]
 d_dipole_x/<atom=   1,y> =    -0.0143     [   -0.0685]
 d_dipole_x/<atom=   1,z> =     0.0000     [    0.0000]
 d_dipole_x/<atom=   2,x> =    -1.0073     [   -4.8384]
 d_dipole_x/<atom=   2,y> =     0.0143     [    0.0685]
 d_dipole_x/<atom=   2,z> =    -0.0000     [   -0.0000]
  
 Y vector of derivative dipole (au) [debye/angstrom]
 d_dipole_y/<atom=   1,x> =    -0.0143     [   -0.0685]
 d_dipole_y/<atom=   1,y> =     0.0275     [    0.1323]
 d_dipole_y/<atom=   1,z> =     0.0000     [    0.0000]
 d_dipole_y/<atom=   2,x> =     0.0143     [    0.0685]
 d_dipole_y/<atom=   2,y> =    -0.0275     [   -0.1323]
 d_dipole_y/<atom=   2,z> =    -0.0000     [   -0.0000]
  
 Z vector of derivative dipole (au) [debye/angstrom]
 d_dipole_z/<atom=   1,x> =     0.0000     [    0.0000]
 d_dipole_z/<atom=   1,y> =     0.0000     [    0.0000]
 d_dipole_z/<atom=   1,z> =     0.0273     [    0.1313]
 d_dipole_z/<atom=   2,x> =    -0.0000     [   -0.0000]
 d_dipole_z/<atom=   2,y> =    -0.0000     [   -0.0000]
 d_dipole_z/<atom=   2,z> =    -0.0273     [   -0.1313]
  
  
 HESSIAN: the Hessian is done


  Vibrational analysis via the FX method 

  See chapter 2 in "Molecular Vibrations" by Wilson, Decius and Cross

  Vib: Default input used 

  Nuclear Hessian passed symmetry test 



 ---------------------------- Atom information ----------------------------
     atom    #        X              Y              Z            mass
 --------------------------------------------------------------------------
    C        1 -1.1914832D+00  1.7327344D-02  0.0000000D+00  1.2000000D+01
    O        2  9.0616428D-01 -1.3178046D-02  0.0000000D+00  1.5994910D+01
 --------------------------------------------------------------------------




          ----------------------------------------------------
          MASS-WEIGHTED NUCLEAR HESSIAN (Hartree/Bohr/Bohr/Kamu)
          ----------------------------------------------------


               1            2            3            4            5            6
   ----- ----- ----- ----- -----
    1    1.27813D+02
    2   -1.85874D+00  2.71675D-02
    3   -2.13480D-12  7.80889D-13  1.36412D-04
    4   -1.10707D+02  1.60997D+00  1.46074D-12  9.58902D+01
    5    1.60997D+00 -2.35315D-02 -6.72770D-13 -1.39450D+00  2.03821D-02
    6    1.84882D-12 -6.74765D-13 -1.18155D-04 -1.60136D-12  5.88139D-13  1.02342D-04



          -------------------------------------------------
          NORMAL MODE EIGENVECTORS IN CARTESIAN COORDINATES
          -------------------------------------------------
                 (Frequencies expressed in cm-1)

                    1           2           3           4           5           6
 
 Frequency          0.00        0.00        0.01        2.51        2.51     2431.57
 
           1    -0.06653     0.00000    -0.17690     0.00000     0.00317    -0.21818
           2    -0.17690     0.00000     0.06653     0.00000     0.21818     0.00317
           3     0.00000     0.18900     0.00000     0.21820     0.00000     0.00000
           4    -0.06653     0.00000    -0.17690     0.00000    -0.00238     0.16369
           5    -0.17690     0.00000     0.06653     0.00000    -0.16369    -0.00238
           6     0.00000     0.18900     0.00000    -0.16370     0.00000     0.00000



 ----------------------------------------------------------------------------
 Normal Eigenvalue ||         Derivative Dipole Moments (debye/angs)
  Mode   [cm**-1]  ||      [d/dqX]             [d/dqY]           [d/dqZ]
 ------ ---------- || ------------------ ------------------ -----------------
    1        0.004 ||      -0.000              -0.000             0.000
    2        0.005 ||       0.000               0.000             0.000
    3        0.010 ||      -0.000              -0.000            -0.000
    4        2.512 ||       0.000               0.000             0.050
    5        2.512 ||       0.001               0.050             0.000
    6     2431.567 ||      -1.848               0.027            -0.000
 ----------------------------------------------------------------------------



  
  
 ----------------------------------------------------------------------------
 Normal Eigenvalue ||                 Infra Red Intensities
  Mode   [cm**-1]  || [atomic units] [(debye/angs)**2] [(KM/mol)] [arbitrary]
 ------ ---------- || -------------- ----------------- ---------- -----------
    1        0.004 ||    0.000000           0.000         0.000       0.000
    2        0.005 ||    0.000000           0.000         0.000       0.000
    3        0.010 ||    0.000000           0.000         0.000       0.000
    4        2.512 ||    0.000109           0.003         0.106       0.044
    5        2.512 ||    0.000109           0.003         0.106       0.044
    6     2431.567 ||    0.148061           3.416       144.337      59.912
 ----------------------------------------------------------------------------





        Vibrational analysis via the FX method 
  --- with translations and rotations projected out ---
  --- via the Eckart algorithm                      ---
 Dependent rotation vector no.                    2
  found in ECKART; assuming linear geometry
 Projected Nuclear Hessian trans-rot subspace norm:1.2329D-32
                         (should be close to zero!) 

          --------------------------------------------------------
          MASS-WEIGHTED PROJECTED HESSIAN (Hartree/Bohr/Bohr/Kamu)
          --------------------------------------------------------


               1            2            3            4            5            6
   ----- ----- ----- ----- -----
    1    1.27813D+02
    2   -1.85874D+00  2.70311D-02
    3    5.25907D-28 -1.31477D-28  0.00000D+00
    4   -1.10707D+02  1.60997D+00 -2.27761D-28  9.58902D+01
    5    1.60997D+00 -2.34133D-02  0.00000D+00 -1.39450D+00  2.02797D-02
    6   -3.39862D-28 -1.13880D-28  1.52848D-20  2.45056D-28  0.00000D+00  0.00000D+00

 center of mass
 --------------
 x =   0.00700905 y =  -0.00010193 z =   0.00000000

 moments of inertia (a.u.)
 ------------------
           0.006380241801           0.438725683594           0.000000000000
           0.438725683594          30.168170965071           0.000000000000
           0.000000000000           0.000000000000          30.174551206872

 Rotational Constants
 --------------------
 A=   0.000000 cm-1  (  0.000000 K)
 B=   1.995064 cm-1  (  2.870389 K)
 C=   1.995064 cm-1  (  2.870389 K)


 Temperature                      =   298.15K
 frequency scaling parameter      =   1.0000


 Linear Molecule                   

 Zero-Point correction to Energy  =    3.474 kcal/mol  (  0.005537 au)
 Thermal correction to Energy     =    4.955 kcal/mol  (  0.007896 au)
 Thermal correction to Enthalpy   =    5.547 kcal/mol  (  0.008840 au)

 Total Entropy                    =   47.116 cal/mol-K
   - Translational                =   35.907 cal/mol-K (mol. weight =  27.9949)
   - Rotational                   =   11.209 cal/mol-K (symmetry #  =        1)
   - Vibrational                  =    0.000 cal/mol-K

 Cv (constant volume heat capacity) =    4.968 cal/mol-K
   - Translational                  =    2.979 cal/mol-K
   - Rotational                     =    1.986 cal/mol-K
   - Vibrational                    =    0.002 cal/mol-K



          -------------------------------------------------
          NORMAL MODE EIGENVECTORS IN CARTESIAN COORDINATES
          -------------------------------------------------
             (Projected Frequencies expressed in cm-1)

                    1           2           3           4           5           6
 
 P.Frequency       -0.00        0.00        0.00        0.00        0.00     2431.57
 
           1    -0.18900     0.00000     0.00000     0.00240    -0.00208    -0.21818
           2     0.00000     0.00000     0.00000     0.28866     0.00000     0.00317
           3     0.00000     0.28868     0.00000     0.00000     0.00000     0.00000
           4    -0.18900     0.00000     0.00000    -0.00180     0.00156     0.16369
           5     0.00000     0.00000     0.00000     0.00003     0.25003    -0.00238
           6     0.00000     0.00000     0.25004     0.00000     0.00000     0.00000



 ----------------------------------------------------------------------------
 Normal Eigenvalue ||    Projected Derivative Dipole Moments (debye/angs)
  Mode   [cm**-1]  ||      [d/dqX]             [d/dqY]           [d/dqZ]
 ------ ---------- || ------------------ ------------------ -----------------
    1       -0.000 ||       0.000               0.000             0.000
    2        0.000 ||       0.000               0.000             0.038
    3        0.000 ||      -0.000              -0.000            -0.033
    4        0.000 ||       0.001               0.038             0.000
    5        0.000 ||      -0.000              -0.033            -0.000
    6     2431.567 ||      -1.848               0.027            -0.000
 ----------------------------------------------------------------------------



  
  
 ----------------------------------------------------------------------------
 Normal Eigenvalue ||           Projected Infra Red Intensities
  Mode   [cm**-1]  || [atomic units] [(debye/angs)**2] [(KM/mol)] [arbitrary]
 ------ ---------- || -------------- ----------------- ---------- -----------
    1       -0.000 ||    0.000000           0.000         0.000       0.000
    2        0.000 ||    0.000062           0.001         0.061       0.025
    3        0.000 ||    0.000047           0.001         0.046       0.019
    4        0.000 ||    0.000062           0.001         0.061       0.025
    5        0.000 ||    0.000047           0.001         0.046       0.019
    6     2431.567 ||    0.148061           3.416       144.337      59.912
 ----------------------------------------------------------------------------



 vib:animation  F

 Task  times  cpu:        1.3s     wall:        7.8s


                                NWChem Input Module
                                -------------------


 Summary of allocated global arrays
-----------------------------------
  No active global arrays



                         GA Statistics for process    0
                         ------------------------------

       create   destroy   get      put      acc     scatter   gather  read&inc
calls: 1460     1460     5.82e+04 5529     4.00e+04  163        0      443     
number of processes/call 1.34e+00 1.94e+00 1.30e+00 0.00e+00 0.00e+00
bytes total:             1.89e+07 4.63e+06 1.15e+07 0.00e+00 0.00e+00 3.54e+03
bytes remote:            1.10e+07 9.34e+05 9.58e+06 -1.18e+03 0.00e+00 0.00e+00
Max memory consumed for GA by this process: 103536 bytes

MA_summarize_allocated_blocks: starting scan ...
MA_summarize_allocated_blocks: scan completed: 0 heap blocks, 0 stack blocks
MA usage statistics:

	allocation statistics:
					      heap	     stack
					      ----	     -----
	current number of blocks	         0	         0
	maximum number of blocks	        25	        36
	current total bytes		         0	         0
	maximum total bytes		   1063864	  74388456
	maximum total K-bytes		      1064	     74389
	maximum total M-bytes		         2	        75


                                     CITATION
                                     --------
                Please cite the following reference when publishing
                           results obtained with NWChem:

                 M. Valiev, E.J. Bylaska, N. Govind, K. Kowalski,
              T.P. Straatsma, H.J.J. van Dam, D. Wang, J. Nieplocha,
                        E. Apra, T.L. Windus, W.A. de Jong
                 "NWChem: a comprehensive and scalable open-source
                  solution for large scale molecular simulations"
                      Comput. Phys. Commun. 181, 1477 (2010)
                           doi:10.1016/j.cpc.2010.04.018

                                      AUTHORS
                                      -------
          E. Apra, E. J. Bylaska, W. A. de Jong, N. Govind, K. Kowalski,
       T. P. Straatsma, M. Valiev, H. J. J. van Dam, D. Wang, T. L. Windus,
        J. Hammond, J. Autschbach, K. Bhaskaran-Nair, J. Brabec, K. Lopata,
       S. A. Fischer, S. Krishnamoorthy, W. Ma, M. Klemm, O. Villa, Y. Chen,
    V. Anisimov, F. Aquino, S. Hirata, M. T. Hackler, T. Risthaus, M. Malagoli,
       A. Marenich, A. Otero-de-la-Roza, J. Mullin, P. Nichols, R. Peverati,
     J. Pittner, Y. Zhao, P.-D. Fan, A. Fonari, M. Williamson, R. J. Harrison,
       J. R. Rehr, M. Dupuis, D. Silverstein, D. M. A. Smith, J. Nieplocha,
        V. Tipparaju, M. Krishnan, B. E. Van Kuiken, A. Vazquez-Mayagoitia,
        L. Jensen, M. Swart, Q. Wu, T. Van Voorhis, A. A. Auer, M. Nooijen,
      L. D. Crosby, E. Brown, G. Cisneros, G. I. Fann, H. Fruchtl, J. Garza,
        K. Hirao, R. A. Kendall, J. A. Nichols, K. Tsemekhman, K. Wolinski,
     J. Anchell, D. E. Bernholdt, P. Borowski, T. Clark, D. Clerc, H. Dachsel,
   M. J. O. Deegan, K. Dyall, D. Elwood, E. Glendening, M. Gutowski, A. C. Hess,
         J. Jaffe, B. G. Johnson, J. Ju, R. Kobayashi, R. Kutteh, Z. Lin,
   R. Littlefield, X. Long, B. Meng, T. Nakajima, S. Niu, L. Pollack, M. Rosing,
   K. Glaesemann, G. Sandrone, M. Stave, H. Taylor, G. Thomas, J. H. van Lenthe,
                               A. T. Wong, Z. Zhang.

 Total times  cpu:        2.5s     wall:       72.1s
